TITLE      =  "2D FE Unstructured grid data" 
VARIABLES = "X", "Y", "U", "Dom" 
ZONE T="P1", F=FEPOINT, N= 1002 E= 1875  ET=TRIANGLE 
 0.000000 0.000000 0.000000 1
 0.087327 0.087323 0.174651 1
 0.000000 0.200000 0.200000 1
 0.164068 0.294556 0.458624 1
 0.000000 0.400000 0.400000 1
 0.175415 0.489017 0.664432 1
 0.000000 0.600000 0.600000 1
 0.175187 0.691607 0.866793 1
 0.000000 0.800000 0.800000 1
 0.175773 0.893440 1.069213 1
 0.000000 1.000000 1.000000 1
 0.175430 1.095728 1.271159 1
 0.000000 1.200000 1.200000 1
 0.174509 1.297629 1.472139 1
 0.000000 1.400000 1.400000 1
 0.173791 1.498816 1.672608 1
 0.000000 1.600000 1.600000 1
 0.173419 1.699468 1.872887 1
 0.000000 1.800000 1.800000 1
 0.173268 1.899793 2.073062 1
 0.000000 2.000000 2.000000 1
 0.173220 2.099933 2.273154 1
 0.000000 2.200000 2.200000 1
 0.173207 2.299983 2.473191 1
 0.000000 2.400000 2.400000 1
 0.173205 2.499997 2.673204 1
 0.000000 2.600000 2.600000 1
 0.173205 2.700000 2.873207 1
 0.000000 2.800000 2.800000 1
 0.173205 2.900000 3.073206 1
 0.000000 3.000000 3.000000 1
 0.173205 3.100000 3.273210 1
 0.000000 3.200000 3.200000 1
 0.173205 3.300000 3.473209 1
 0.000000 3.400000 3.400000 1
 0.173205 3.500000 3.673211 1
 0.000000 3.600000 3.600000 1
 0.173205 3.700000 3.873210 1
 0.000000 3.800000 3.800000 1
 0.173205 3.900000 4.073213 1
 0.000000 4.000000 4.000000 1
 0.173205 4.100000 4.273210 1
 0.000000 4.200000 4.200000 1
 0.173205 4.300000 4.473212 1
 0.000000 4.400000 4.400000 1
 0.173205 4.500000 4.673210 1
 0.000000 4.600000 4.600000 1
 0.173205 4.700000 4.873210 1
 0.000000 4.800000 4.800000 1
 6.000000 0.000000 6.000000 1
 6.200000 0.000000 6.200000 1
 6.100000 0.173205 6.273204 1
 5.800000 0.000000 5.800000 1
 5.900000 0.173205 6.073207 1
 5.600000 0.000000 5.600000 1
 5.700000 0.173205 5.873207 1
 5.400000 0.000000 5.400000 1
 5.500000 0.173205 5.673210 1
 5.200000 0.000000 5.200000 1
 5.300000 0.173205 5.473208 1
 5.000000 0.000000 5.000000 1
 5.100000 0.173205 5.273205 1
 4.800000 0.000000 4.800000 1
 4.900000 0.173205 5.073206 1
 4.600000 0.000000 4.600000 1
 4.700000 0.173205 4.873207 1
 4.400000 0.000000 4.400000 1
 4.500000 0.173205 4.673208 1
 4.200000 0.000000 4.200000 1
 4.300000 0.173205 4.473206 1
 4.000000 0.000000 4.000000 1
 4.100000 0.173205 4.273210 1
 3.800000 0.000000 3.800000 1
 3.900000 0.173205 4.073210 1
 3.600000 0.000000 3.600000 1
 3.700000 0.173205 3.873211 1
 3.400000 0.000000 3.400000 1
 3.500000 0.173205 3.673208 1
 3.200000 0.000000 3.200000 1
 3.300000 0.173205 3.473207 1
 3.000000 0.000000 3.000000 1
 3.100000 0.173205 3.273207 1
 2.800000 0.000000 2.800000 1
 2.900000 0.173205 3.073208 1
 2.600000 0.000000 2.600000 1
 2.700000 0.173205 2.873208 1
 2.400000 0.000000 2.400000 1
 2.499997 0.173206 2.673203 1
 2.200000 0.000000 2.200000 1
 2.299983 0.173208 2.473191 1
 2.000000 0.000000 2.000000 1
 2.099934 0.173219 2.273154 1
 1.800000 0.000000 1.800000 1
 1.899802 0.173259 2.073063 1
 1.600000 0.000000 1.600000 1
 1.699498 0.173389 1.872888 1
 1.400000 0.000000 1.400000 1
 1.498881 0.173726 1.672607 1
 1.200000 0.000000 1.200000 1
 1.297737 0.174401 1.472139 1
 1.000000 0.000000 1.000000 1
 1.095870 0.175288 1.271159 1
 0.800000 0.000000 0.800000 1
 0.893593 0.175620 1.069213 1
 0.600000 0.000000 0.600000 1
 0.691741 0.175052 0.866792 1
 0.400000 0.000000 0.400000 1
 0.489115 0.175317 0.664432 1
 0.200000 0.000000 0.200000 1
 0.294610 0.164014 0.458624 1
 0.149248 0.149227 0.298475 1
 6.300000 0.173205 6.473206 1
 0.364719 0.364563 0.729281 1
 0.348253 0.582570 0.930823 1
 0.351911 0.783551 1.135463 1
 0.352893 0.988529 1.341424 1
 0.350517 1.193471 1.543990 1
 0.348400 1.396510 1.744911 1
 0.347229 1.598247 1.945477 1
 0.346699 1.799212 2.145912 1
 0.346493 1.999698 2.346194 1
 0.346428 2.199904 2.546334 1
 0.346412 2.399976 2.746391 1
 0.346410 2.599996 2.946408 1
 0.346410 2.799999 3.146413 1
 0.346410 3.000000 3.346415 1
 0.346410 3.200000 3.546417 1
 0.346410 3.400000 3.746418 1
 0.346410 3.600000 3.946422 1
 0.346410 3.800000 4.146423 1
 0.346410 4.000000 4.346421 1
 0.346410 4.200000 4.546422 1
 0.346410 4.400000 4.746421 1
 0.346410 4.600000 4.946421 1
 6.200000 0.346410 6.546414 1
 6.000000 0.346410 6.346414 1
 5.800000 0.346410 6.146412 1
 5.600000 0.346410 5.946416 1
 5.400000 0.346410 5.746417 1
 5.200000 0.346410 5.546413 1
 5.000000 0.346410 5.346416 1
 4.800000 0.346410 5.146415 1
 4.600000 0.346410 4.946417 1
 4.400000 0.346410 4.746418 1
 4.200000 0.346410 4.546417 1
 4.000000 0.346410 4.346417 1
 3.800000 0.346410 4.146417 1
 3.600000 0.346410 3.946417 1
 3.400000 0.346410 3.746415 1
 3.200000 0.346410 3.546413 1
 3.000000 0.346410 3.346413 1
 2.799999 0.346411 3.146411 1
 2.599994 0.346412 2.946407 1
 2.399972 0.346417 2.746390 1
 2.199898 0.346434 2.546334 1
 1.999698 0.346494 2.346195 1
 1.799239 0.346673 2.145913 1
 1.598330 0.347146 1.945476 1
 1.396678 0.348232 1.744911 1
 1.193725 0.350263 1.543990 1
 0.988833 0.352589 1.341423 1
 0.783846 0.351615 1.135462 1
 0.582808 0.348015 0.930823 1
 0.346410 4.800000 5.146421 1
 6.400000 0.346410 6.746413 1
 0.497809 0.497512 0.995322 1
 0.524303 0.667888 1.192192 1
 0.535935 0.875688 1.411624 1
 0.529597 1.087411 1.617010 1
 0.524426 1.292970 1.817397 1
 0.521805 1.495965 2.017771 1
 0.520541 1.697896 2.218438 1
 0.519944 1.899053 2.418997 1
 0.519704 2.099636 2.619342 1
 0.519631 2.299881 2.819516 1
 0.519616 2.499967 3.019587 1
 0.519615 2.699993 3.219612 1
 0.519615 2.899999 3.419620 1
 0.519615 3.100000 3.619622 1
 0.519615 3.300000 3.819625 1
 0.519615 3.500000 4.019629 1
 0.519615 3.700000 4.219630 1
 0.519615 3.900000 4.419628 1
 0.519615 4.100000 4.619631 1
 0.519615 4.300000 4.819630 1
 0.519615 4.500000 5.019632 1
 0.519615 4.700000 5.219629 1
 6.300000 0.519615 6.819619 1
 6.100000 0.519615 6.619620 1
 5.900000 0.519615 6.419623 1
 5.700000 0.519615 6.219622 1
 5.500000 0.519615 6.019624 1
 5.300000 0.519615 5.819622 1
 5.100000 0.519615 5.619625 1
 4.900000 0.519615 5.419624 1
 4.700000 0.519615 5.219624 1
 4.500000 0.519615 5.019626 1
 4.300000 0.519615 4.819623 1
 4.100000 0.519615 4.619626 1
 3.900000 0.519615 4.419627 1
 3.700000 0.519615 4.219626 1
 3.500000 0.519615 4.019622 1
 3.300000 0.519615 3.819620 1
 3.100000 0.519615 3.619620 1
 2.899998 0.519616 3.419618 1
 2.699988 0.519620 3.219611 1
 2.499955 0.519628 3.019584 1
 2.299857 0.519655 2.819512 1
 2.099603 0.519737 2.619343 1
 1.899034 0.519963 2.418998 1
 1.697936 0.520501 2.218437 1
 1.496118 0.521652 2.017770 1
 1.293265 0.524131 1.817397 1
 1.087824 0.529184 1.617011 1
 0.876140 0.535483 1.411625 1
 0.668282 0.523908 1.192192 1
 0.743781 0.743251 1.487034 1
 0.714766 0.982336 1.697104 1
 0.701785 1.189739 1.891526 1
 0.697349 1.392592 2.089942 1
 0.695211 1.595436 2.290648 1
 0.693850 1.797657 2.491508 1
 0.693159 1.998944 2.692106 1
 0.692903 2.199569 2.892475 1
 0.692837 2.399840 3.092680 1
 0.692825 2.599946 3.292776 1
 0.692823 2.799984 3.492815 1
 0.692821 2.999996 3.692826 1
 0.692821 3.199999 3.892830 1
 0.692820 3.400000 4.092835 1
 0.692820 3.600000 4.292836 1
 0.692820 3.800000 4.492839 1
 0.692820 4.000000 4.692842 1
 0.692820 4.200000 4.892839 1
 0.692820 4.400000 5.092841 1
 0.692820 4.600000 5.292840 1
 6.200000 0.692820 6.892829 1
 6.000000 0.692820 6.692830 1
 5.800000 0.692820 6.492831 1
 5.600000 0.692820 6.292831 1
 5.400000 0.692820 6.092834 1
 5.200000 0.692820 5.892833 1
 5.000000 0.692820 5.692832 1
 4.800000 0.692820 5.492836 1
 4.600000 0.692820 5.292832 1
 4.400000 0.692820 5.092832 1
 4.200000 0.692820 4.892832 1
 4.000000 0.692820 4.692832 1
 3.800000 0.692820 4.492834 1
 3.600000 0.692820 4.292832 1
 3.400000 0.692820 4.092829 1
 3.199999 0.692821 3.892827 1
 2.999994 0.692823 3.692824 1
 2.799976 0.692830 3.492812 1
 2.599922 0.692849 3.292774 1
 2.399786 0.692890 3.092678 1
 2.199478 0.692994 2.892473 1
 1.998829 0.693274 2.692104 1
 1.797570 0.693937 2.491508 1
 1.595460 0.695187 2.290647 1
 1.392801 0.697140 2.089940 1
 1.190151 0.701374 1.891526 1
 0.982873 0.714229 1.697104 1
 0.904692 0.904113 1.808807 1
 0.875262 1.093654 1.968918 1
 0.872672 1.288373 2.161046 1
 0.871424 1.491271 2.362695 1
 0.868759 1.695209 2.563967 1
 0.867031 1.897566 2.764600 1
 0.866326 2.098787 2.965116 1
 0.866119 2.299415 3.165536 1
 0.866070 2.499735 3.365809 1
 0.866050 2.699891 3.565948 1
 0.866037 2.899961 3.766008 1
 0.866029 3.099989 3.966029 1
 0.866026 3.299998 4.166038 1
 0.866025 3.500000 4.366041 1
 0.866025 3.700000 4.566045 1
 0.866025 3.900000 4.766046 1
 0.866025 4.100000 4.966047 1
 0.866025 4.300000 5.166044 1
 0.866025 4.500000 5.366048 1
 6.100000 0.866025 6.966035 1
 5.900000 0.866025 6.766036 1
 5.700000 0.866025 6.566039 1
 5.500000 0.866025 6.366039 1
 5.300000 0.866025 6.166040 1
 5.100000 0.866025 5.966041 1
 4.900000 0.866025 5.766041 1
 4.700000 0.866025 5.566040 1
 4.500000 0.866025 5.366042 1
 4.300000 0.866025 5.166042 1
 4.100000 0.866025 4.966040 1
 3.900000 0.866025 4.766039 1
 3.700000 0.866025 4.566040 1
 3.500000 0.866025 4.366037 1
 3.299998 0.866026 4.166034 1
 3.099987 0.866030 3.966026 1
 2.899952 0.866046 3.766004 1
 2.699857 0.866084 3.565946 1
 2.499648 0.866157 3.365808 1
 2.299244 0.866290 3.165536 1
 2.098526 0.866586 2.965111 1
 1.897262 0.867335 2.764597 1
 1.694964 0.869005 2.563969 1
 1.491213 0.871483 2.362697 1
 1.288591 0.872455 2.161048 1
 1.094124 0.874793 1.968917 1
 1.018832 1.018379 2.037212 1
 1.041813 1.179793 2.221606 1
 1.051907 1.382795 2.434703 1
 1.045834 1.591803 2.637637 1
 1.041593 1.795566 2.837160 1
 1.040010 1.997238 3.037250 1
 1.039571 2.198299 3.237871 1
 1.039447 2.399035 3.438484 1
 1.039374 2.599509 3.638888 1
 1.039306 2.799782 3.839096 1
 1.039260 2.999919 4.039188 1
 1.039239 3.199976 4.239228 1
 1.039232 3.399995 4.439241 1
 1.039231 3.599999 4.639247 1
 1.039230 3.800000 4.839252 1
 1.039230 4.000000 5.039255 1
 1.039230 4.200000 5.239253 1
 1.039230 4.400000 5.439256 1
 6.000000 1.039230 7.039241 1
 5.800000 1.039230 6.839246 1
 5.600000 1.039230 6.639245 1
 5.400000 1.039230 6.439246 1
 5.200000 1.039230 6.239245 1
 5.000000 1.039230 6.039246 1
 4.800000 1.039230 5.839246 1
 4.600000 1.039230 5.639246 1
 4.400000 1.039230 5.439246 1
 4.200000 1.039230 5.239248 1
 4.000000 1.039230 5.039249 1
 3.800000 1.039230 4.839245 1
 3.599999 1.039230 4.639245 1
 3.399995 1.039232 4.439239 1
 3.199976 1.039239 4.239226 1
 2.999912 1.039267 4.039187 1
 2.799748 1.039341 3.839095 1
 2.599402 1.039480 3.638884 1
 2.398795 1.039687 3.438484 1
 2.197882 1.039987 3.237870 1
 1.996660 1.040587 3.037248 1
 1.794932 1.042226 2.837157 1
 1.591289 1.046349 2.637636 1
 1.382576 1.052126 2.434702 1
 1.179966 1.041640 2.221606 1
 1.039230 4.600000 5.639255 1
 1.255007 1.255433 2.510440 1
 1.227789 1.490121 2.717909 1
 1.216409 1.694494 2.910902 1
 1.213714 1.894848 3.108564 1
 1.213291 2.095873 3.309167 1
 1.213169 2.297191 3.510361 1
 1.213006 2.498325 3.711334 1
 1.212784 2.699132 3.911922 1
 1.212597 2.899615 4.112220 1
 1.212491 3.099857 4.312357 1
 1.212449 3.299958 4.512420 1
 1.212438 3.499990 4.712445 1
 1.212436 3.699999 4.912454 1
 1.212436 3.900000 5.112461 1
 1.212436 4.100000 5.312462 1
 1.212436 4.300000 5.512463 1
 1.212436 4.500000 5.712460 1
 5.900000 1.212436 7.112451 1
 5.700000 1.212436 6.912452 1
 5.500000 1.212436 6.712454 1
 5.300000 1.212436 6.512454 1
 5.100000 1.212436 6.312453 1
 4.900000 1.212436 6.112454 1
 4.700000 1.212436 5.912451 1
 4.500000 1.212436 5.712453 1
 4.300000 1.212436 5.512453 1
 4.100000 1.212436 5.312454 1
 3.900000 1.212436 5.112452 1
 3.699999 1.212436 4.912450 1
 3.499992 1.212437 4.712440 1
 3.299960 1.212447 4.512421 1
 3.099859 1.212489 4.312357 1
 2.899597 1.212616 4.112218 1
 2.699040 1.212877 3.911920 1
 2.498069 1.213261 3.711332 1
 2.296674 1.213685 3.510360 1
 2.095055 1.214109 3.309166 1
 1.893812 1.214750 3.108562 1
 1.693428 1.217475 2.910902 1
 1.489260 1.228650 2.717909 1
 1.212436 4.700000 5.912461 1
 6.100000 1.212436 7.312449 1
 1.413810 1.415033 2.828841 1
 1.386281 1.600956 2.987237 1
 1.385638 1.791814 3.177451 1
 1.387263 1.991152 3.378415 1
 1.387521 2.193173 3.580696 1
 1.387376 2.395406 3.782784 1
 1.386863 2.597319 3.984184 1
 1.386290 2.798646 4.184941 1
 1.385907 2.999408 4.385322 1
 1.385725 3.199780 4.585515 1
 1.385661 3.399933 4.785606 1
 1.385644 3.599984 4.985643 1
 1.385641 3.799997 5.185659 1
 1.385641 4.000000 5.385664 1
 1.385641 4.200000 5.585661 1
 1.385641 4.400000 5.785665 1
 1.385641 4.600000 5.985664 1
 6.000000 1.385641 7.385652 1
 5.800000 1.385641 7.185655 1
 5.600000 1.385641 6.985658 1
 5.400000 1.385641 6.785659 1
 5.200000 1.385641 6.585660 1
 5.000000 1.385641 6.385660 1
 4.800000 1.385641 6.185658 1
 4.600000 1.385641 5.985659 1
 4.400000 1.385641 5.785657 1
 4.200000 1.385641 5.585658 1
 4.000000 1.385641 5.385657 1
 3.799998 1.385641 5.185654 1
 3.599986 1.385643 4.985640 1
 3.399940 1.385655 4.785604 1
 3.199795 1.385710 4.585514 1
 2.999422 1.385893 4.385322 1
 2.798613 1.386324 4.184941 1
 2.597134 1.387048 3.984185 1
 2.394919 1.387862 3.782781 1
 2.192274 1.388420 3.580694 1
 1.989850 1.388565 3.378415 1
 1.790279 1.387172 3.177449 1
 1.599464 1.387774 2.987236 1
 1.526350 1.528089 3.054438 1
 1.549493 1.685172 3.234663 1
 1.562431 1.881507 3.443937 1
 1.562629 2.085799 3.648428 1
 1.563078 2.289425 3.852502 1
 1.562317 2.493238 4.055555 1
 1.560908 2.696254 4.257167 1
 1.559807 2.898145 4.457957 1
 1.559211 3.099183 4.658402 1
 1.558960 3.299690 4.858659 1
 1.558875 3.499902 5.058790 1
 1.558851 3.699975 5.258842 1
 1.558847 3.899996 5.458863 1
 1.558846 4.099999 5.658866 1
 1.558846 4.300000 5.858868 1
 1.558846 4.500000 6.058868 1
 5.900000 1.558846 7.458858 1
 5.700000 1.558846 7.258861 1
 5.500000 1.558846 7.058862 1
 5.300000 1.558846 6.858866 1
 5.100000 1.558846 6.658862 1
 4.900000 1.558846 6.458862 1
 4.700000 1.558846 6.258862 1
 4.500000 1.558846 6.058862 1
 4.300000 1.558846 5.858860 1
 4.099999 1.558846 5.658859 1
 3.899996 1.558846 5.458858 1
 3.699978 1.558849 5.258838 1
 3.499912 1.558864 5.058785 1
 3.299718 1.558932 4.858658 1
 3.099237 1.559158 4.658401 1
 2.898202 1.559751 4.457956 1
 2.696223 1.560940 4.257165 1
 2.492949 1.562607 4.055554 1
 2.288685 1.563819 3.852503 1
 2.084512 1.563916 3.648427 1
 1.879792 1.564146 3.443938 1
 1.683303 1.551363 3.234663 1
 1.558846 4.700000 6.258870 1
 1.753661 1.755524 3.509184 1
 1.736856 1.976105 3.712960 1
 1.740183 2.178912 3.919095 1
 1.740562 2.385413 4.125974 1
 1.737502 2.591534 4.329036 1
 1.734812 2.795401 4.530214 1
 1.733257 2.997668 4.730929 1
 1.732511 3.198942 4.931460 1
 1.732201 3.399587 5.131800 1
 1.732091 3.599865 5.331968 1
 1.732059 3.799964 5.532036 1
 1.732052 3.999993 5.732063 1
 1.732051 4.199999 5.932069 1
 1.732051 4.400000 6.132072 1
 1.732051 4.600000 6.332074 1
 5.800000 1.732051 7.532064 1
 5.600000 1.732051 7.332070 1
 5.400000 1.732051 7.132070 1
 5.200000 1.732051 6.932071 1
 5.000000 1.732051 6.732069 1
 4.800000 1.732051 6.532069 1
 4.600000 1.732051 6.332067 1
 4.400000 1.732051 6.132065 1
 4.199999 1.732051 5.932063 1
 3.999993 1.732051 5.732058 1
 3.799968 1.732056 5.532034 1
 3.599878 1.732077 5.331965 1
 3.399626 1.732161 5.131793 1
 3.199031 1.732421 4.931459 1
 2.997818 1.733107 4.730929 1
 2.795563 1.734651 4.530215 1
 2.591559 1.737477 4.329036 1
 2.385063 1.740912 4.125975 1
 2.177982 1.741112 3.919093 1
 1.974583 1.738378 3.712959 1
 1.732051 4.800000 6.532075 1
 6.000001 1.732051 7.732061 1
 1.888216 1.889735 3.777951 1
 1.914438 2.061578 3.976016 1
 1.925266 2.270957 4.196222 1
 1.917839 2.484147 4.401985 1
 1.911728 2.690839 4.602568 1
 1.908412 2.894665 4.803081 1
 1.906691 3.097172 5.003868 1
 1.905827 3.298693 5.204530 1
 1.905448 3.499480 5.404942 1
 1.905309 3.699824 5.605146 1
 1.905268 3.899951 5.805236 1
 1.905258 4.099989 6.005269 1
 1.905256 4.299998 6.205276 1
 1.905256 4.500000 6.405278 1
 1.905256 4.700000 6.605278 1
 5.900002 1.905255 7.805268 1
 5.700000 1.905256 7.605271 1
 5.500000 1.905256 7.405274 1
 5.300000 1.905256 7.205275 1
 5.100000 1.905256 7.005273 1
 4.900000 1.905256 6.805273 1
 4.700000 1.905256 6.605273 1
 4.500000 1.905256 6.405271 1
 4.299998 1.905256 6.205267 1
 4.099990 1.905257 6.005260 1
 3.899955 1.905264 5.805230 1
 3.699840 1.905293 5.605145 1
 3.499527 1.905400 5.404935 1
 3.298807 1.905713 5.204527 1
 3.097392 1.906471 5.003868 1
 2.894997 1.908081 4.803079 1
 2.691190 1.911376 4.602565 1
 2.484311 1.917675 4.401982 1
 2.270653 1.925570 4.196219 1
 2.060597 1.915418 3.976012 1
 1.905256 4.900000 6.805280 1
 2.135760 2.135899 4.271660 1
 2.104960 2.377002 4.481960 1
 2.090590 2.585908 4.676498 1
 2.085064 2.789966 4.875030 1
 2.082110 2.993779 5.075892 1
 2.080192 3.196719 5.276918 1
 2.079153 3.398481 5.477644 1
 2.078700 3.599380 5.678094 1
 2.078535 3.799781 5.878331 1
 2.078482 3.999936 6.078438 1
 2.078466 4.199985 6.278472 1
 2.078462 4.399997 6.478480 1
 2.078461 4.600000 6.678482 1
 2.078461 4.800000 6.878485 1
 5.800001 2.078460 7.878476 1
 5.600000 2.078461 7.678478 1
 5.400000 2.078461 7.478478 1
 5.200000 2.078461 7.278480 1
 5.000000 2.078461 7.078478 1
 4.800000 2.078461 6.878480 1
 4.600000 2.078461 6.678475 1
 4.399998 2.078462 6.478475 1
 4.199987 2.078465 6.278463 1
 3.999942 2.078475 6.078431 1
 3.799801 2.078515 5.878326 1
 3.599434 2.078646 5.678090 1
 3.398609 2.079026 5.477645 1
 3.196977 2.079934 5.276917 1
 2.994213 2.081675 5.075892 1
 2.790560 2.084471 4.875032 1
 2.586526 2.089971 4.676497 1
 2.377388 2.104573 4.481960 1
 2.078461 5.000000 7.078486 1
 2.297137 2.296457 4.593591 1
 2.266043 2.487662 4.753702 1
 2.262109 2.683799 4.945906 1
 2.259681 2.888058 5.147739 1
 2.256066 3.093198 5.349270 1
 2.253646 3.296485 5.550140 1
 2.252471 3.498326 5.750806 1
 2.251976 3.699291 5.951285 1
 2.251779 3.899743 6.151538 1
 2.251704 4.099922 6.351643 1
 2.251678 4.299981 6.551679 1
 2.251669 4.499996 6.751689 1
 2.251667 4.699999 6.951691 1
 2.251666 4.900000 7.151692 1
 5.700000 2.251665 7.951680 1
 5.500000 2.251666 7.751680 1
 5.300000 2.251666 7.551681 1
 5.100000 2.251666 7.351686 1
 4.900000 2.251666 7.151685 1
 4.700000 2.251666 6.951684 1
 4.499998 2.251667 6.751680 1
 4.299985 2.251673 6.551670 1
 4.099934 2.251692 6.351638 1
 3.899770 2.251751 6.151532 1
 3.699354 2.251912 5.951278 1
 3.498463 2.252333 5.750804 1
 3.296756 2.253375 5.550139 1
 3.093670 2.255594 5.349268 1
 2.888762 2.258976 5.147738 1
 2.684678 2.261230 4.945908 1
 2.488550 2.265155 4.753703 1
 2.251666 5.100000 7.351690 1
 2.411478 2.410436 4.821913 1
 2.433464 2.572872 5.006333 1
 2.442241 2.777406 5.219648 1
 2.434824 2.988160 5.422988 1
 2.429480 3.193494 5.622980 1
 2.426994 3.396388 5.823391 1
 2.425862 3.598193 6.024068 1
 2.425308 3.799222 6.224548 1
 2.425049 3.999711 6.424780 1
 2.424937 4.199905 6.624863 1
 2.424893 4.399971 6.824886 1
 2.424877 4.599992 7.024892 1
 2.424872 4.799998 7.224895 1
 2.424871 5.000000 7.424896 1
 2.251666 5.300000 7.551687 1
 2.424871 5.200000 7.624891 1
 5.600003 2.424872 8.024889 1
 5.400002 2.424872 7.824885 1
 5.200001 2.424871 7.624887 1
 5.000000 2.424871 7.424890 1
 4.799999 2.424871 7.224888 1
 4.599996 2.424873 7.024885 1
 4.399982 2.424882 6.824879 1
 4.199931 2.424911 6.624856 1
 3.999761 2.424999 6.424770 1
 3.799312 2.425218 6.224543 1
 3.598354 2.425700 6.024063 1
 3.396673 2.426709 5.823391 1
 3.193966 2.429008 5.622980 1
 2.988868 2.434115 5.422988 1
 2.778346 2.441301 5.219646 1
 2.573951 2.432385 5.006335 1
 2.424873 5.400000 7.824892 1
 2.648262 2.647236 5.295497 1
 2.619244 2.884385 5.503630 1
 2.606478 3.091104 5.697586 1
 2.602436 3.293624 5.896068 1
 2.600625 3.496181 6.096817 1
 2.599405 3.698123 6.297543 1
 2.598689 3.899182 6.497889 1
 2.598339 4.099661 6.698017 1
 2.598183 4.299863 6.898064 1
 2.598115 4.499947 7.098085 1
 2.598088 4.699982 7.298093 1
 2.598079 4.899995 7.498096 1
 2.598078 5.099999 7.698098 1
 2.598082 5.300001 7.898100 1
 2.598092 5.500003 8.098110 1
 2.424874 5.600000 8.024893 1
 5.500020 2.598085 8.098118 1
 5.300009 2.598080 7.898103 1
 5.100002 2.598078 7.698095 1
 4.899997 2.598078 7.498090 1
 4.699988 2.598081 7.298083 1
 4.499968 2.598094 7.098076 1
 4.299912 2.598133 6.898062 1
 4.099755 2.598246 6.698016 1
 3.899334 2.598537 6.497880 1
 3.698352 2.599176 6.297538 1
 3.496516 2.600291 6.096817 1
 3.294110 2.601950 5.896066 1
 3.091786 2.605796 5.697587 1
 2.885270 2.618359 5.503633 1
 2.598095 5.700013 8.298123 1
 2.808132 2.807213 5.615348 1
 2.779400 2.995999 5.775403 1
 2.777545 3.190280 5.967833 1
 2.776947 3.392756 6.169713 1
 2.774630 3.596229 6.370874 1
 2.772931 3.798154 6.571100 1
 2.772066 3.999056 6.771142 1
 2.771655 4.199502 6.971178 1
 2.771452 4.399749 7.171221 1
 2.771350 4.599888 7.371257 1
 2.771303 4.799959 7.571284 1
 2.771289 4.999989 7.771299 1
 2.771296 5.200000 7.971316 1
 2.771325 5.400011 8.171353 1
 2.771370 5.600039 8.371428 1
 5.400070 2.771310 8.171395 1
 5.200027 2.771293 7.971335 1
 4.999999 2.771287 7.771299 1
 4.799970 2.771295 7.571279 1
 4.599919 2.771318 7.371251 1
 4.399827 2.771373 7.171217 1
 4.199659 2.771497 6.971170 1
 3.999314 2.771808 6.771138 1
 3.798517 2.772568 6.571099 1
 3.596696 2.774163 6.370869 1
 3.393331 2.776373 6.169711 1
 3.190976 2.776849 5.967830 1
 2.996826 2.778574 5.775401 1
 2.771375 5.800104 8.571499 1
 5.600135 2.771328 8.371475 1
 2.922392 2.921528 5.843927 1
 2.946249 3.082691 6.028945 1
 2.957400 3.285266 6.242674 1
 2.952061 3.493652 6.445726 1
 2.948034 3.696757 6.644805 1
 2.946264 3.897863 6.844146 1
 2.945481 4.098550 7.044049 1
 2.945043 4.299105 7.244169 1
 2.944766 4.499521 7.444308 1
 2.944603 4.699786 7.644413 1
 2.944527 4.899924 7.844475 1
 2.944517 5.099982 8.044518 1
 2.944571 5.300014 8.244606 1
 2.944699 5.500071 8.444786 1
 2.944854 5.700213 8.645086 1
 5.500349 2.944624 8.444990 1
 5.300164 2.944554 8.244728 1
 5.100044 2.944515 8.044571 1
 4.899949 2.944519 7.844484 1
 4.699821 2.944566 7.644402 1
 4.499619 2.944663 7.444296 1
 4.299323 2.944820 7.244155 1
 4.098934 2.945094 7.044043 1
 3.898422 2.945704 6.844137 1
 3.697459 2.947331 6.644801 1
 3.494440 2.951274 6.445724 1
 3.286091 2.956575 6.242673 1
 3.083534 2.945406 6.028946 1
 2.944842 5.900488 8.845346 1
 5.700603 2.944670 8.645288 1
 3.160048 3.159053 6.319108 1
 3.134210 3.392973 6.527193 1
 3.123370 3.596509 6.719892 1
 3.120593 3.796051 6.916662 1
 3.119744 3.996455 7.116217 1
 3.119122 4.197420 7.316563 1
 3.118584 4.398415 7.517022 1
 3.118154 4.599186 7.717362 1
 3.117883 4.799658 7.917565 1
 3.117774 4.999887 8.117685 1
 3.117818 5.199984 8.317828 1
 3.118045 5.400070 8.518140 1
 3.118476 5.600294 8.718791 1
 3.118910 5.800822 8.919754 1
 2.944321 6.100876 9.045213 1
 3.118761 6.001706 9.120487 1
 5.601278 3.118198 8.719490 1
 5.400676 3.117987 8.518677 1
 5.200269 3.117822 8.318104 1
 4.999989 3.117771 8.117775 1
 4.799702 3.117842 7.917559 1
 4.599276 3.118035 7.717327 1
 4.398651 3.118316 7.516981 1
 4.197893 3.118627 7.316536 1
 3.997207 3.118982 7.116201 1
 3.797036 3.119605 6.916652 1
 3.597621 3.122257 6.719886 1
 3.394090 3.133093 6.527191 1
 3.117218 6.202582 9.319816 1
 5.802030 3.118254 8.920296 1
 3.320134 3.318774 6.638918 1
 3.293481 3.503857 6.797350 1
 3.292979 3.693779 6.986772 1
 3.294220 3.892272 7.186511 1
 3.293897 4.093745 7.387661 1
 3.293229 4.295729 7.588978 1
 3.292369 4.497565 7.789958 1
 3.291625 4.698853 7.990501 1
 3.291190 4.899559 8.190772 1
 3.291081 5.099869 8.390977 1
 3.291326 5.300003 8.591350 1
 3.292045 5.500215 8.792285 1
 3.293254 5.700898 8.994176 1
 3.294283 5.902485 9.196788 1
 3.293627 6.104989 9.398635 1
 3.998385 6.881881 10.880300 1
 3.799394 6.883211 10.682637 1
 3.895375 6.708621 10.604026 1
 4.198628 6.881684 11.080353 1
 4.096443 6.707893 10.804373 1
 4.297658 6.708089 11.005779 1
 4.399142 6.881866 11.281047 1
 4.498693 6.708449 11.207178 1
 4.599571 6.882074 11.481682 1
 5.703693 3.292384 8.996085 1
 5.502136 3.291913 8.794061 1
 5.301006 3.291391 8.592409 1
 5.100268 3.291113 8.391395 1
 4.899672 3.291137 8.190823 1
 4.698908 3.291465 7.990391 1
 4.497745 3.292047 7.789808 1
 4.296191 3.292655 7.588861 1
 4.094584 3.292998 7.387593 1
 3.893475 3.292995 7.186482 1
 3.695218 3.291535 6.986765 1
 3.505338 3.292000 6.797349 1
 3.288837 6.306361 9.595216 1
 3.696660 6.713190 10.409877 1
 4.699407 6.708754 11.408203 1
 3.433333 3.431665 6.865011 1
 3.456739 3.587969 7.044723 1
 3.469515 3.783359 7.252891 1
 3.469277 3.986945 7.456239 1
 3.469207 4.190248 7.659477 1
 3.468053 4.393979 7.862054 1
 3.466382 4.596951 8.063358 1
 3.465122 4.798721 8.263869 1
 3.464505 4.999568 8.464101 1
 3.464505 5.199877 8.664408 1
 3.465260 5.399986 8.865268 1
 3.467137 5.600390 9.067550 1
 3.470250 5.802162 9.272438 1
 3.472327 6.006245 9.478593 1
 3.471079 6.213562 9.684659 1
 3.787873 6.533646 10.321547 1
 3.992395 6.533657 10.526086 1
 4.194744 6.533955 10.728733 1
 4.396751 6.534371 10.931161 1
 4.598332 6.534884 11.133253 1
 5.605465 3.467008 9.072484 1
 5.402808 3.465672 8.868493 1
 5.201106 3.464736 8.665854 1
 4.999941 3.464459 8.464411 1
 4.798752 3.464832 8.263600 1
 4.596994 3.465860 8.062871 1
 4.394298 3.467295 7.861608 1
 4.191016 3.468174 7.659205 1
 3.988198 3.467917 7.456130 1
 3.784965 3.467881 7.252861 1
 3.589710 3.454995 7.044717 1
 3.453721 6.414768 9.868511 1
 3.588941 6.549791 10.138758 1
 3.660070 3.658274 7.318359 1
 3.643328 3.878004 7.521350 1
 3.646447 4.080515 7.726984 1
 3.646656 4.287077 7.933755 1
 3.643370 4.493326 8.136721 1
 3.640344 4.697091 8.337461 1
 3.638500 4.898977 8.537506 1
 3.637753 5.099737 8.737518 1
 3.638042 5.299843 8.937916 1
 3.639778 5.499630 9.139429 1
 3.644010 5.699929 9.343965 1
 3.652457 5.904323 9.556803 1
 3.653785 6.112446 9.766253 1
 3.664689 6.340184 10.004898 1
 3.888225 6.359203 10.247453 1
 4.090245 6.359823 10.450094 1
 4.293159 6.359688 10.652884 1
 4.496118 6.360181 10.856334 1
 5.506257 3.641587 9.147855 1
 5.302824 3.639053 8.941889 1
 5.100743 3.637913 8.738668 1
 4.899042 3.637994 8.537053 1
 4.696891 3.639292 8.336198 1
 4.493366 3.641963 8.135346 1
 4.287665 3.645133 7.932816 1
 4.081683 3.644882 7.726580 1
 3.879602 3.641633 7.521251 1
 4.698299 6.361084 11.059416 1
 5.711941 3.644645 9.356597 1
 3.794060 3.792303 7.586378 1
 3.820471 3.964051 7.784543 1
 3.831830 4.173845 8.005695 1
 3.824738 4.387755 8.212517 1
 3.818118 4.594825 8.412967 1
 3.813838 4.798208 8.612074 1
 3.811523 4.999689 8.811235 1
 3.810730 5.200062 9.010821 1
 3.811397 5.399538 9.210957 1
 3.814403 5.598020 9.412446 1
 3.822016 5.795403 9.617448 1
 3.854137 6.010942 9.865104 1
 3.809010 6.201818 10.010858 1
 3.984338 6.187819 10.172186 1
 4.187131 6.184612 10.371778 1
 4.392108 6.183928 10.576073 1
 4.596367 6.185392 10.781794 1
 5.611322 3.820980 9.432313 1
 5.405224 3.814687 9.219922 1
 5.202112 3.811705 9.013829 1
 4.999848 3.810969 8.810835 1
 4.797530 3.811940 8.609488 1
 4.594291 3.815134 8.409443 1
 4.388085 3.821581 8.209684 1
 4.175085 3.829355 8.004461 1
 3.965717 3.818590 7.784325 1
 4.798958 6.187218 10.986211 1
 4.042418 4.039702 8.082141 1
 4.013954 4.282567 8.296548 1
 3.999677 4.493560 8.493262 1
 3.991608 4.698021 8.689655 1
 3.986436 4.900120 8.886577 1
 3.983922 5.100821 9.084771 1
 3.982996 5.300550 9.283571 1
 3.983646 5.498712 9.482380 1
 3.987065 5.694353 9.681449 1
 3.981576 5.864599 9.846200 1
 4.076795 6.010706 10.087536 1
 4.284914 6.004316 10.289258 1
 4.493441 6.007114 10.500588 1
 4.698170 6.010512 10.708714 1
 5.506200 3.991862 9.498071 1
 5.303460 3.985818 9.289289 1
 5.101062 3.983914 9.084988 1
 4.898533 3.984063 8.882611 1
 4.696011 3.986255 8.682280 1
 4.493102 3.992536 8.485655 1
 4.284352 4.008356 8.292730 1
 4.900598 6.013912 10.914538 1
 5.714865 4.007560 9.722439 1
 4.208342 4.202204 8.410569 1
 4.182033 4.398869 8.580926 1
 4.173604 4.599751 8.773378 1
 4.162862 4.802161 8.965047 1
 4.158014 5.002370 9.160411 1
 4.155569 5.202445 9.358036 1
 4.153769 5.401451 9.555243 1
 4.153236 5.597424 9.750688 1
 4.168516 5.810633 9.979182 1
 4.390712 5.826420 10.217159 1
 4.597642 5.829285 10.426957 1
 4.801918 5.837666 10.639610 1
 5.598191 4.166802 9.764997 1
 5.403332 4.158935 9.562273 1
 5.202557 4.156714 9.359288 1
 4.999789 4.156389 9.156196 1
 4.796943 4.157049 8.954008 1
 4.595987 4.159571 8.755575 1
 4.400958 4.167648 8.568628 1
 5.002956 5.841684 10.844664 1
 5.790763 4.201298 9.992073 1
 4.331014 4.318569 8.649607 1
 4.371658 4.498763 8.870442 1
 4.339408 4.709141 9.048571 1
 4.332259 4.905314 9.237593 1
 4.329537 5.104638 9.434194 1
 4.326573 5.305268 9.631861 1
 4.321475 5.503583 9.825081 1
 4.305547 5.674067 9.979635 1
 4.494113 5.630286 10.124423 1
 4.707891 5.660985 10.368899 1
 4.905374 5.667368 10.572759 1
 5.668088 4.317640 9.985736 1
 5.502778 4.327365 9.830150 1
 5.304957 4.328632 9.633601 1
 5.101945 4.329381 9.431342 1
 4.897652 4.329564 9.227229 1
 4.694493 4.329161 9.023673 1
 4.496460 4.328167 8.824646 1
 5.105484 5.669804 10.775308 1
 5.666818 5.097191 10.764026 1
 5.666323 4.901888 10.568223 1
 5.839147 4.999345 10.838503 1
 4.496521 4.641739 9.138278 1
 4.503991 4.810073 9.314080 1
 4.502879 5.005909 9.508809 1
 4.503939 5.207926 9.711885 1
 4.496449 5.411569 9.908042 1
 4.640123 5.503543 10.143682 1
 4.809714 5.495664 10.305397 1
 5.006308 5.496612 10.502939 1
 5.496418 5.191912 10.688349 1
 5.661818 5.291677 10.953514 1
 5.497002 4.999701 10.496718 1
 5.495658 4.807553 10.303224 1
 5.659755 4.707521 10.367284 1
 5.502953 4.640473 10.143435 1
 5.627558 4.497765 10.125337 1
 5.410894 4.498173 9.909079 1
 5.206214 4.504466 9.710692 1
 4.999890 4.503228 9.503131 1
 4.793485 4.504927 9.298429 1
 4.588579 4.498978 9.087578 1
 5.208943 5.495486 10.704440 1
 5.504851 5.359362 10.864226 1
 4.682240 4.694730 9.376985 1
 4.673819 4.906794 9.580631 1
 4.676157 5.103004 9.779177 1
 4.693971 5.318064 10.012053 1
 4.906869 5.326146 10.233025 1
 5.103649 5.323884 10.427548 1
 5.319131 5.306384 10.625531 1
 5.327497 5.096061 10.423571 1
 5.327126 4.903711 10.230855 1
 5.317714 4.693514 10.011241 1
 5.100462 4.676728 9.777198 1
 4.899690 4.677087 9.576793 1