TITLE      =  "2D FE Unstructured grid data" 
VARIABLES = "X", "Y", "U", "Dom" 
ZONE T="P1", F=FEPOINT, N= 1040 E= 1930  ET=TRIANGLE 
 7.300000 9.826795 17.126795 0
 7.400000 10.000000 17.400000 0
 7.200000 10.000000 17.200001 0
 7.500000 9.826796 17.326797 0
 7.600000 10.000000 17.600000 0
 7.700002 9.826799 17.526798 0
 7.800000 10.000000 17.799999 0
 7.900011 9.826811 17.726820 0
 8.000000 10.000000 18.000000 0
 8.100041 9.826840 17.926889 0
 8.200000 10.000000 18.200001 0
 8.300128 9.826893 18.127028 0
 8.400000 10.000000 18.400000 0
 8.500334 9.826964 18.327309 0
 8.600000 10.000000 18.600000 0
 8.700749 9.827041 18.527784 0
 8.800000 10.000000 18.799999 0
 8.901427 9.827153 18.728580 0
 9.000000 10.000000 19.000000 0
 9.102324 9.827316 18.929642 0
 9.200000 10.000000 19.200001 0
 9.303625 9.827213 19.130840 0
 9.400000 10.000000 19.400000 0
 9.507698 9.826240 19.333931 0
 9.600000 10.000000 19.600000 0
 9.707205 9.840112 19.547310 0
 9.800000 10.000000 19.799999 0
 9.868964 9.869840 19.738810 0
 10.000000 10.000000 20.000000 0
 10.000000 9.800000 19.799999 0
 9.837681 9.709203 19.546877 0
 10.000000 9.600000 19.600000 0
 9.820952 9.509867 19.330824 0
 10.000000 9.400000 19.400000 0
 9.820171 9.304181 19.124355 0
 10.000000 9.200000 19.200001 0
 9.821795 9.101304 18.923105 0
 10.000000 9.000000 19.000000 0
 9.824164 8.900148 18.724323 0
 10.000000 8.800000 18.799999 0
 9.825560 8.699957 18.525528 0
 10.000000 8.600000 18.600000 0
 9.826258 8.499968 18.326231 0
 10.000000 8.400000 18.400000 0
 9.826588 8.299988 18.126583 0
 10.000000 8.200000 18.200001 0
 9.826729 8.099998 17.926735 0
 10.000000 8.000000 18.000000 0
 9.826778 7.900001 17.726789 0
 10.000000 7.800000 17.799999 0
 9.826792 7.700001 17.526804 0
 10.000000 7.600000 17.600000 0
 9.826795 7.500000 17.326797 0
 10.000000 7.400000 17.400000 0
 9.826795 7.300000 17.126801 0
 10.000000 7.200000 17.200001 0
 9.826795 7.100000 16.926809 0
 10.000000 7.000000 17.000000 0
 9.826795 6.900000 16.726814 0
 10.000000 6.800000 16.799999 0
 9.826795 6.700000 16.526808 0
 10.000000 6.600000 16.600000 0
 9.826795 6.500000 16.326796 0
 10.000000 6.400000 16.400000 0
 9.826795 6.300000 16.126808 0
 10.000000 6.200000 16.200001 0
 9.826795 6.100000 15.926805 0
 10.000000 6.000000 16.000000 0
 9.826795 5.900000 15.726806 0
 10.000000 5.800000 15.800000 0
 9.826795 5.700000 15.526804 0
 10.000000 5.600000 15.600000 0
 9.826795 5.500000 15.326806 0
 10.000000 5.400000 15.400000 0
 9.826795 5.300000 15.126813 0
 10.000000 5.200000 15.200000 0
 9.826795 5.100000 14.926805 0
 10.000000 5.000000 15.000000 0
 9.826795 4.900000 14.726808 0
 10.000000 4.800000 14.800000 0
 9.826795 4.700000 14.526804 0
 10.000000 4.600000 14.600000 0
 9.826795 4.500000 14.326808 0
 10.000000 4.400000 14.400000 0
 9.826795 4.300000 14.126811 0
 10.000000 4.200000 14.200000 0
 9.826795 4.100000 13.926807 0
 10.000000 4.000000 14.000000 0
 9.826795 3.900000 13.726800 0
 10.000000 3.800000 13.800000 0
 9.826795 3.700000 13.526804 0
 10.000000 3.600000 13.600000 0
 9.826795 3.500000 13.326803 0
 10.000000 3.400000 13.400000 0
 9.826795 3.300000 13.126801 0
 10.000000 3.200000 13.200000 0
 9.826795 3.100000 12.926803 0
 10.000000 3.000000 13.000000 0
 9.826795 2.900000 12.726798 0
 10.000000 2.800000 12.800000 0
 9.826795 2.700000 12.526795 0
 10.000000 2.600000 12.600000 0
 9.826796 2.500000 12.326804 0
 10.000000 2.400000 12.400000 0
 9.826795 2.300001 12.126799 0
 10.000000 2.200000 12.200000 0
 9.826790 2.100004 11.926796 0
 10.000000 2.000000 12.000000 0
 9.826769 1.899997 11.726772 0
 10.000000 1.800000 11.800000 0
 9.826718 1.699942 11.526666 0
 10.000000 1.600000 11.600000 0
 9.826645 1.499748 11.326397 0
 10.000000 1.400000 11.400000 0
 9.826605 1.299307 11.125919 0
 10.000000 1.200000 11.200000 0
 9.826694 1.098594 10.925293 0
 10.000000 1.000000 11.000000 0
 9.826888 0.897739 10.724630 0
 10.000000 0.800000 10.800000 0
 9.826661 0.696703 10.523361 0
 10.000000 0.600000 10.600000 0
 9.824934 0.493506 10.318444 0
 10.000000 0.400000 10.400000 0
 9.835630 0.297254 10.132889 0
 10.000000 0.200000 10.200000 0
 9.912641 0.087587 10.000225 0
 10.000000 0.000000 10.000000 0
 9.800000 0.000000 9.800000 0
 9.600000 0.000000 9.600000 0
 9.704722 0.166774 9.871497 0
 9.400000 0.000000 9.400000 0
 9.508581 0.180216 9.688803 0
 9.200000 0.000000 9.200000 0
 9.303722 0.180030 9.483754 0
 9.000000 0.000000 9.000000 0
 9.101120 0.177994 9.279118 0
 8.800000 0.000000 8.800000 0
 8.900103 0.175431 9.075528 0
 8.600000 0.000000 8.600000 0
 8.699998 0.174015 8.874013 0
 8.400000 0.000000 8.400000 0
 8.500047 0.173424 8.673470 0
 8.200000 0.000000 8.200000 0
 8.300056 0.173237 8.473289 0
 8.000000 0.000000 8.000000 0
 8.100037 0.173200 8.273232 0
 7.800000 0.000000 7.800000 0
 7.900016 0.173201 8.073217 0
 7.600000 0.000000 7.600000 0
 7.700005 0.173204 7.873207 0
 7.400000 0.000000 7.400000 0
 7.500001 0.173205 7.673203 0
 7.200000 0.000000 7.200000 0
 7.300000 0.173205 7.473200 0
 7.000000 0.000000 7.000000 0
 7.100000 0.173205 7.273201 0
 6.800000 0.000000 6.800000 0
 6.900000 0.173205 7.073203 0
 6.600000 0.000000 6.600000 0
 6.700000 0.173205 6.873206 0
 6.400000 0.000000 6.400000 0
 6.500000 0.173205 6.673208 0
 6.200000 0.000000 6.200000 0
 6.300000 0.173205 6.473206 0
 7.100000 9.826795 16.926792 0
 9.850587 0.150333 10.000928 0
 7.200000 9.653590 16.853598 0
 7.400001 9.653591 17.053606 0
 7.600004 9.653597 17.253601 0
 7.800018 9.653618 17.453640 0
 8.000062 9.653674 17.653738 0
 8.200181 9.653785 17.853985 0
 8.400465 9.653945 18.054424 0
 8.601070 9.654096 18.255177 0
 8.802207 9.654192 18.456409 0
 9.003881 9.654489 18.658371 0
 9.205553 9.655162 18.860733 0
 9.406587 9.654738 19.061331 0
 9.629012 9.635622 19.264629 0
 9.638646 9.410381 19.049025 0
 9.639001 9.203550 18.842560 0
 9.646443 8.999763 18.646212 0
 9.650084 8.799567 18.449656 0
 9.651889 8.599755 18.251648 0
 9.652842 8.399879 18.052731 0
 9.653315 8.199951 17.853270 0
 9.653508 7.999991 17.653507 0
 9.653569 7.800005 17.453581 0
 9.653584 7.600005 17.253593 0
 9.653588 7.400002 17.053595 0
 9.653589 7.200001 16.853600 0
 9.653590 7.000000 16.653605 0
 9.653590 6.800000 16.453611 0
 9.653590 6.600000 16.253595 0
 9.653590 6.400000 16.053608 0
 9.653590 6.200000 15.853606 0
 9.653590 6.000000 15.653608 0
 9.653590 5.800000 15.453615 0
 9.653590 5.600000 15.253608 0
 9.653590 5.400000 15.053605 0
 9.653590 5.200000 14.853611 0
 9.653590 5.000000 14.653606 0
 9.653590 4.800000 14.453609 0
 9.653590 4.600000 14.253616 0
 9.653590 4.400000 14.053614 0
 9.653590 4.200000 13.853607 0
 9.653590 4.000000 13.653604 0
 9.653590 3.800000 13.453603 0
 9.653590 3.600000 13.253608 0
 9.653590 3.400000 13.053602 0
 9.653590 3.200000 12.853593 0
 9.653590 3.000000 12.653595 0
 9.653590 2.800000 12.453595 0
 9.653590 2.600000 12.253597 0
 9.653592 2.400002 12.053599 0
 9.653589 2.200010 11.853607 0
 9.653562 2.000027 11.653593 0
 9.653461 1.800009 11.453481 0
 9.653239 1.599814 11.253057 0
 9.652949 1.399181 11.052134 0
 9.652830 1.197874 10.850708 0
 9.653275 0.996054 10.649328 0
 9.654196 0.794502 10.448702 0
 9.653635 0.594034 10.247673 0
 9.633580 0.372823 10.006406 0
 9.409357 0.361810 9.771173 0
 9.202974 0.360545 9.563522 0
 8.999496 0.352481 9.351983 0
 8.799597 0.348583 9.148183 0
 8.599996 0.346968 8.946971 0
 8.400155 0.346451 8.746605 0
 8.200141 0.346361 8.546500 0
 8.000079 0.346379 8.346455 0
 7.800033 0.346402 8.146433 0
 7.600011 0.346410 7.946418 0
 7.400003 0.346411 7.746409 0
 7.200001 0.346411 7.546406 0
 7.000000 0.346410 7.346406 0
 6.800000 0.346410 7.146410 0
 6.600000 0.346410 6.946410 0
 6.400000 0.346410 6.746413 0
 7.300002 9.480387 16.780407 0
 7.500010 9.480394 16.980415 0
 7.700032 9.480425 17.180468 0
 7.900091 9.480510 17.380617 0
 8.100234 9.480691 17.580938 0
 8.300544 9.480989 17.781549 0
 8.501161 9.481326 17.982502 0
 8.702361 9.481443 18.183813 0
 8.904716 9.481133 18.385845 0
 9.107935 9.482063 18.590010 0
 9.309589 9.485273 18.794867 0
 9.484353 9.499175 18.983534 0
 9.437746 9.309972 18.747725 0
 9.467803 9.095390 18.563217 0
 9.473907 8.897997 18.371922 0
 9.476659 8.699073 18.175735 0
 9.478454 8.499472 17.977936 0
 9.479591 8.299726 17.779324 0
 9.480122 8.099918 17.580053 0
 9.480307 7.900009 17.380320 0
 9.480357 7.700027 17.180401 0
 9.480372 7.500017 16.980404 0
 9.480380 7.300006 16.780386 0
 9.480384 7.100001 16.580393 0
 9.480385 6.900000 16.380402 0
 9.480385 6.700000 16.180391 0
 9.480385 6.500000 15.980400 0
 9.480385 6.300000 15.780397 0
 9.480385 6.100000 15.580401 0
 9.480385 5.900000 15.380409 0
 9.480385 5.700000 15.180404 0
 9.480385 5.500000 14.980411 0
 9.480385 5.300000 14.780409 0
 9.480385 5.100000 14.580404 0
 9.480385 4.900000 14.380413 0
 9.480385 4.700000 14.180411 0
 9.480385 4.500000 13.980409 0
 9.480385 4.300000 13.780405 0
 9.480385 4.100000 13.580404 0
 9.480385 3.900000 13.380404 0
 9.480385 3.700000 13.180404 0
 9.480385 3.500000 12.980404 0
 9.480385 3.300000 12.780397 0
 9.480385 3.100000 12.580403 0
 9.480385 2.900000 12.380399 0
 9.480386 2.699999 12.180393 0
 9.480391 2.499998 11.980397 0
 9.480398 2.300007 11.780412 0
 9.480389 2.100050 11.580441 0
 9.480285 1.900133 11.380430 0
 9.479924 1.700137 11.180073 0
 9.479170 1.499668 10.978844 0
 9.478285 1.298133 10.776429 0
 9.477967 1.095104 10.573076 0
 9.479834 0.891516 10.371356 0
 9.483906 0.690157 10.174067 0
 9.497973 0.516076 10.014055 0
 9.308722 0.561459 9.870183 0
 9.094481 0.530112 9.624598 0
 8.897707 0.522956 9.420669 0
 8.699534 0.520181 9.219718 0
 8.500291 0.519385 9.019677 0
 8.300405 0.519342 8.819743 0
 8.100284 0.519471 8.619747 0
 7.900150 0.519573 8.419716 0
 7.700065 0.519616 8.219674 0
 7.500023 0.519623 8.019633 0
 7.300007 0.519620 7.819619 0
 7.100001 0.519617 7.619613 0
 6.900000 0.519615 7.419613 0
 6.700000 0.519615 7.219615 0
 6.500000 0.519615 7.019617 0
 6.300000 0.519615 6.819619 0
 7.400021 9.307189 16.707222 0
 7.600062 9.307224 16.907293 0
 7.800154 9.307332 17.107494 0
 8.000341 9.307586 17.307943 0
 8.200694 9.308045 17.508757 0
 8.401299 9.308702 17.710020 0
 8.602229 9.309296 17.911539 0
 8.803866 9.308906 18.112782 0
 9.008959 9.305711 18.314688 0
 9.215408 9.310452 18.525864 0
 9.308238 9.165133 18.473381 0
 9.299490 8.995043 18.294556 0
 9.300645 8.797984 18.098640 0
 9.302873 8.598524 17.901415 0
 9.305339 8.398994 17.704342 0
 9.306558 8.199627 17.506201 0
 9.306973 8.000001 17.306993 0
 9.307079 7.800108 17.107201 0
 9.307117 7.600085 16.907215 0
 9.307146 7.400040 16.707201 0
 9.307167 7.200013 16.507195 0
 9.307177 7.000003 16.307198 0
 9.307179 6.800000 16.107197 0
 9.307179 6.600000 15.907198 0
 9.307179 6.400000 15.707203 0
 9.307179 6.200000 15.507198 0
 9.307179 6.000000 15.307199 0
 9.307179 5.800000 15.107205 0
 9.307179 5.600000 14.907209 0
 9.307179 5.400000 14.707209 0
 9.307179 5.200000 14.507212 0
 9.307179 5.000000 14.307211 0
 9.307179 4.800000 14.107212 0
 9.307179 4.600000 13.907210 0
 9.307179 4.400000 13.707209 0
 9.307179 4.200000 13.507204 0
 9.307179 4.000000 13.307205 0
 9.307179 3.800000 13.107205 0
 9.307179 3.600000 12.907198 0
 9.307179 3.400000 12.707202 0
 9.307179 3.200000 12.507202 0
 9.307179 2.999999 12.307196 0
 9.307180 2.799995 12.107191 0
 9.307187 2.599985 11.907187 0
 9.307206 2.399977 11.707194 0
 9.307241 2.200013 11.507259 0
 9.307230 2.000178 11.307416 0
 9.306939 1.800509 11.107459 0
 9.305885 1.600714 10.906606 0
 9.303614 1.399746 10.703364 0
 9.301503 1.196497 10.498010 0
 9.300078 0.989496 10.289578 0
 9.307668 0.782809 10.090480 0
 9.162893 0.688829 9.851728 0
 8.993343 0.694862 9.688209 0
 8.798278 0.691929 9.490214 0
 8.600464 0.691424 9.291886 0
 8.400994 0.691834 9.092830 0
 8.200827 0.692332 8.893149 0
 8.000520 0.692669 8.693183 0
 7.800275 0.692829 8.493093 0
 7.600124 0.692866 8.292981 0
 7.400046 0.692852 8.092889 0
 7.200013 0.692833 7.892840 0
 7.000003 0.692824 7.692822 0
 6.800000 0.692821 7.492818 0
 6.600000 0.692820 7.292819 0
 6.400000 0.692820 7.092827 0
 6.200000 0.692820 6.892829 0
 7.500120 9.134007 16.634146 0
 7.700280 9.134119 16.834417 0
 7.900562 9.134421 17.034992 0
 8.101011 9.135026 17.236055 0
 8.301710 9.135969 17.437696 0
 8.502620 9.137278 17.639923 0
 8.703229 9.138531 17.841782 0
 8.902556 9.137239 18.039816 0
 9.119493 9.113961 18.233465 0
 9.124815 8.898394 18.023222 0
 9.123980 8.697309 17.821316 0
 9.130386 8.496932 17.627338 0
 9.132958 8.298738 17.431713 0
 9.133646 8.099950 17.233616 0
 9.133716 7.900363 17.034092 0
 9.133734 7.700330 16.834082 0
 9.133811 7.500182 16.634008 0
 9.133895 7.300073 16.433990 0
 9.133947 7.100021 16.233978 0
 9.133968 6.900004 16.033989 0
 9.133974 6.700001 15.833993 0
 9.133975 6.500000 15.634000 0
 9.133975 6.300000 15.434003 0
 9.133975 6.100000 15.234002 0
 9.133975 5.900000 15.034005 0
 9.133975 5.700000 14.834009 0
 9.133975 5.500000 14.634005 0
 9.133975 5.300000 14.434010 0
 9.133975 5.100000 14.234011 0
 9.133975 4.900000 14.034004 0
 9.133975 4.700000 13.834011 0
 9.133975 4.500000 13.634010 0
 9.133975 4.300000 13.434006 0
 9.133975 4.100000 13.234003 0
 9.133975 3.900000 13.034001 0
 9.133975 3.700000 12.834001 0
 9.133975 3.500000 12.633999 0
 9.133975 3.300000 12.433991 0
 9.133974 3.099998 12.233992 0
 9.133974 2.899988 12.033975 0
 9.133978 2.699961 11.833953 0
 9.134001 2.499909 11.633922 0
 9.134073 2.299867 11.433951 0
 9.134215 2.099976 11.234206 0
 9.134283 1.900495 11.034795 0
 9.133684 1.701602 10.835300 0
 9.131061 1.502725 10.633798 0
 9.124093 1.300443 10.424541 0
 9.122599 1.095314 10.217919 0
 9.108246 0.874847 9.983099 0
 8.896146 0.860498 9.756646 0
 8.700866 0.861507 9.562374 0
 8.502232 0.863358 9.365593 0
 8.302035 0.864744 9.166774 0
 8.101452 0.865608 8.967049 0
 7.900900 0.866078 8.766969 0
 7.700478 0.866220 8.566689 0
 7.500211 0.866181 8.366380 0
 7.300076 0.866104 8.166176 0
 7.100021 0.866053 7.966069 0
 6.900004 0.866032 7.766032 0
 6.700001 0.866026 7.566027 0
 6.500000 0.866025 7.366029 0
 6.300000 0.866025 7.166033 0
 6.100000 0.866025 6.966035 0
 7.600489 8.960849 16.561359 0
 7.800964 8.961123 16.762100 0
 8.001632 8.961826 16.963486 0
 8.202454 8.963049 17.165522 0
 8.403683 8.964512 17.368219 0
 8.604980 8.967175 17.572178 0
 8.804062 8.971238 17.775328 0
 8.975871 8.984391 17.960287 0
 8.927944 8.800052 17.728016 0
 8.955792 8.590317 17.546125 0
 8.960268 8.396417 17.356701 0
 8.960816 8.199830 17.160652 0
 8.960321 8.001071 16.961420 0
 8.960053 7.801050 16.761122 0
 8.960171 7.600637 16.560820 0
 8.960424 7.400289 16.360725 0
 8.960624 7.200102 16.160738 0
 8.960724 7.000029 15.960767 0
 8.960760 6.800006 15.760785 0
 8.960768 6.600001 15.560790 0
 8.960770 6.400000 15.360804 0
 8.960770 6.200000 15.160804 0
 8.960770 6.000000 14.960801 0
 8.960770 5.800000 14.760802 0
 8.960770 5.600000 14.560803 0
 8.960770 5.400000 14.360802 0
 8.960770 5.200000 14.160807 0
 8.960770 5.000000 13.960806 0
 8.960770 4.800000 13.760804 0
 8.960770 4.600000 13.560804 0
 8.960770 4.400000 13.360802 0
 8.960770 4.200000 13.160803 0
 8.960770 4.000000 12.960805 0
 8.960770 3.800000 12.760794 0
 8.960770 3.600000 12.560790 0
 8.960770 3.400000 12.360793 0
 8.960769 3.199996 12.160781 0
 8.960766 2.999979 11.960763 0
 8.960763 2.799926 11.760707 0
 8.960771 2.599804 11.560593 0
 8.960836 2.399608 11.360456 0
 8.961060 2.199445 11.160521 0
 8.961563 1.999703 10.961276 0
 8.962123 1.801100 10.763240 0
 8.961451 1.604329 10.565788 0
 8.956517 1.409660 10.366186 0
 8.927285 1.198459 10.125754 0
 8.971709 1.011493 9.983207 0
 8.802156 1.027864 9.830028 0
 8.604830 1.033423 9.638260 0
 8.404392 1.036631 9.441019 0
 8.203375 1.038248 9.241618 0
 8.002403 1.039413 9.041806 0
 7.801457 1.039881 8.841326 0
 7.600734 1.039816 8.640541 0
 7.400304 1.039573 8.439872 0
 7.200104 1.039376 8.239477 0
 7.000029 1.039276 8.039307 0
 6.800006 1.039240 7.839244 0
 6.600001 1.039232 7.639234 0
 6.400000 1.039231 7.439237 0
 6.200000 1.039230 7.239240 0
 6.000000 1.039230 7.039241 0
 7.701538 8.787665 16.489225 0
 7.902682 8.788234 16.690939 0
 8.103920 8.789767 16.893707 0
 8.304799 8.791993 17.096811 0
 8.507434 8.792245 17.299702 0
 8.710189 8.799296 17.509516 0
 8.800416 8.657840 17.458277 0
 8.791305 8.492050 17.283381 0
 8.790014 8.299849 17.089878 0
 8.787310 8.102899 16.890213 0
 8.785805 7.902880 16.688707 0
 8.785787 7.701822 16.487629 0
 8.786403 7.500889 16.287312 0
 8.787004 7.300355 16.087381 0
 8.787356 7.100121 15.887499 0
 8.787506 6.900036 15.687560 0
 8.787553 6.700009 15.487585 0
 8.787562 6.500002 15.287594 0
 8.787564 6.300000 15.087595 0
 8.787564 6.100000 14.887602 0
 8.787564 5.900000 14.687600 0
 8.787564 5.700000 14.487599 0
 8.787564 5.500000 14.287607 0
 8.787564 5.300000 14.087608 0
 8.787564 5.100000 13.887607 0
 8.787564 4.900000 13.687610 0
 8.787564 4.700000 13.487600 0
 8.787564 4.500000 13.287602 0
 8.787564 4.300000 13.087609 0
 8.787564 4.100000 12.887596 0
 8.787564 3.900000 12.687598 0
 8.787564 3.700000 12.487586 0
 8.787563 3.499999 12.287582 0
 8.787560 3.299994 12.087574 0
 8.787551 3.099968 11.887535 0
 8.787533 2.899883 11.687432 0
 8.787511 2.699674 11.487200 0
 8.787519 2.499275 11.286813 0
 8.787670 2.298691 11.086372 0
 8.788253 2.098170 10.886437 0
 8.789836 1.898629 10.688478 0
 8.792221 1.701819 10.494055 0
 8.792980 1.509298 10.302287 0
 8.801353 1.342790 10.144152 0
 8.710614 1.201247 9.911867 0
 8.508730 1.209343 9.718073 0
 8.306453 1.210192 9.516647 0
 8.105444 1.212754 9.318189 0
 7.903730 1.214213 9.117933 0
 7.702051 1.214218 8.916259 0
 7.500936 1.213598 8.714526 0
 7.300362 1.212997 8.513356 0
 7.100121 1.212644 8.312759 0
 6.900037 1.212494 8.112530 0
 6.700010 1.212448 7.912460 0
 6.500002 1.212437 7.712441 0
 6.300000 1.212436 7.512444 0
 6.100000 1.212436 7.312449 0
 8.006411 8.615168 16.621597 0
 8.208127 8.619066 16.827229 0
 8.405689 8.624035 17.029749 0
 8.617222 8.606673 17.223927 0
 8.624592 8.400598 17.025217 0
 8.616014 8.207366 16.823391 0
 8.610533 8.007153 16.617704 0
 8.609851 7.804448 16.414326 0
 8.611132 7.602213 16.213367 0
 8.612662 7.400936 16.013618 0
 8.613657 7.200366 15.814046 0
 8.614130 7.000137 15.614293 0
 8.614302 6.800049 15.414379 0
 8.614348 6.600015 15.214391 0
 8.614358 6.400003 15.014388 0
 8.614359 6.200000 14.814392 0
 8.614359 6.000000 14.614398 0
 8.614359 5.800000 14.414397 0
 8.614359 5.600000 14.214403 0
 8.614359 5.400000 14.014410 0
 8.614359 5.200000 13.814407 0
 8.614359 5.000000 13.614402 0
 8.614359 4.800000 13.414395 0
 8.614359 4.600000 13.214407 0
 8.614359 4.400000 13.014400 0
 8.614359 4.200000 12.814392 0
 8.614359 4.000000 12.614394 0
 8.614359 3.800000 12.414389 0
 8.614358 3.600000 12.214384 0
 8.614349 3.399994 12.014366 0
 8.614326 3.199962 11.814307 0
 8.614273 2.999846 11.614140 0
 8.614191 2.799542 11.413748 0
 8.614109 2.598920 11.213048 0
 8.614108 2.397896 11.012019 0
 8.614361 2.196484 10.810858 0
 8.615487 1.994905 10.610407 0
 8.620175 1.795360 10.415545 0
 8.627611 1.601984 10.229601 0
 8.619170 1.395246 10.014424 0
 8.408265 1.378965 9.787235 0
 8.210850 1.385088 9.595938 0
 8.008467 1.389786 9.398252 0
 7.804851 1.390228 9.195075 0
 7.602309 1.388886 8.991182 0
 7.400953 1.387343 8.788291 0
 7.200369 1.386347 8.586709 0
 7.000139 1.385873 8.386008 0
 6.800050 1.385701 8.185754 0
 6.600016 1.385652 7.985672 0
 6.400004 1.385642 7.785651 0
 6.200001 1.385641 7.585650 0
 6.000000 1.385641 7.385652 0
 8.114511 8.439873 16.554409 0
 8.316344 8.454264 16.770624 0
 8.482716 8.480515 16.963249 0
 8.451464 8.317411 16.768892 0
 8.432551 8.117146 16.549707 0
 8.430984 7.909530 16.340523 0
 8.433331 7.704561 16.137911 0
 8.436935 7.501875 15.938828 0
 8.439303 7.300807 15.740133 0
 8.440486 7.100379 15.540881 0
 8.440960 6.900178 15.341165 0
 8.441110 6.700073 15.141212 0
 8.441147 6.500024 14.941207 0
 8.441154 6.300005 14.741195 0
 8.441154 6.100001 14.541194 0
 8.441154 5.900000 14.341200 0
 8.441154 5.700000 14.141200 0
 8.441154 5.500000 13.941203 0
 8.441154 5.300000 13.741204 0
 8.441154 5.100000 13.541204 0
 8.441154 4.900000 13.341202 0
 8.441154 4.700000 13.141207 0
 8.441154 4.500000 12.941198 0
 8.441154 4.300000 12.741190 0
 8.441154 4.100000 12.541193 0
 8.441154 3.900000 12.341187 0
 8.441152 3.700001 12.141181 0
 8.441137 3.499998 11.941154 0
 8.441090 3.299971 11.741080 0
 8.440974 3.099846 11.540835 0
 8.440769 2.899465 11.340253 0
 8.440510 2.698614 11.139139 0
 8.440325 2.497134 10.937473 0
 8.440343 2.295050 10.735404 0
 8.440477 2.092296 10.532785 0
 8.440657 1.886963 10.327626 0
 8.456622 1.686969 10.143598 0
 8.486101 1.522864 10.008970 0
 8.320724 1.550891 9.871623 0
 8.118619 1.568232 9.686852 0
 7.910056 1.569237 9.479288 0
 7.704708 1.566725 9.271429 0
 7.501908 1.563083 9.064983 0
 7.300817 1.560709 8.861522 0
 7.100385 1.559523 8.659906 0
 6.900183 1.559046 8.459230 0
 6.700077 1.558892 8.258972 0
 6.500026 1.558854 8.058882 0
 6.300006 1.558847 7.858859 0
 6.100001 1.558846 7.658855 0
 7.908232 8.440257 16.348516 0
 5.900000 1.558846 7.458858 0
 8.012724 8.265565 16.278313 0
 8.238058 8.245457 16.483532 0
 8.248485 8.017168 16.265673 0
 8.250033 7.808044 16.058100 0
 8.259111 7.602485 15.861611 0
 8.264059 7.401207 15.665284 0
 8.266472 7.200780 15.467275 0
 8.267476 7.000492 15.267994 0
 8.267821 6.800259 15.068110 0
 8.267919 6.600107 14.868058 0
 8.267941 6.400033 14.668011 0
 8.267947 6.200007 14.467999 0
 8.267949 6.000001 14.267998 0
 8.267949 5.800000 14.067996 0
 8.267949 5.600000 13.868002 0
 8.267949 5.400000 13.668003 0
 8.267949 5.200000 13.468000 0
 8.267949 5.000000 13.268004 0
 8.267949 4.800000 13.068002 0
 8.267949 4.600000 12.868001 0
 8.267949 4.400000 12.667995 0
 8.267949 4.200000 12.467993 0
 8.267949 4.000000 12.267991 0
 8.267944 3.800003 12.067986 0
 8.267925 3.600008 11.867960 0
 8.267854 3.400002 11.667879 0
 8.267656 3.199914 11.467590 0
 8.267243 2.999542 11.266803 0
 8.266620 2.798540 11.065173 0
 8.266002 2.596555 10.862564 0
 8.265861 2.393630 10.659500 0
 8.266347 2.190456 10.456812 0
 8.265920 1.987779 10.253703 0
 8.246576 1.763064 10.009646 0
 8.017666 1.751873 9.769539 0
 7.808210 1.750072 9.558276 0
 7.602533 1.740929 9.343461 0
 7.401227 1.735968 9.137193 0
 7.200796 1.733546 8.934339 0
 7.000508 1.732529 8.733039 0
 6.800273 1.732174 8.532447 0
 6.600117 1.732074 8.332194 0
 6.400039 1.732053 8.132100 0
 6.200009 1.732050 7.932066 0
 6.000001 1.732051 7.732061 0
 8.047065 7.915984 15.963058 0
 8.079967 7.699140 15.779122 0
 8.088432 7.500603 15.589054 0
 8.092319 7.301176 15.393518 0
 8.093918 7.101106 15.195047 0
 8.094476 6.900727 14.995230 0
 8.094647 6.700355 14.795033 0
 8.094705 6.500129 14.594869 0
 8.094728 6.300033 14.394801 0
 8.094739 6.100005 14.194787 0
 8.094743 5.900000 13.994786 0
 8.094744 5.700000 13.794795 0
 8.094744 5.500000 13.594799 0
 8.094744 5.300000 13.394801 0
 8.094744 5.100000 13.194800 0
 8.094744 4.900000 12.994794 0
 8.094744 4.700000 12.794799 0
 8.094744 4.500000 12.594790 0
 8.094744 4.300000 12.394789 0
 8.094743 4.100001 12.194784 0
 8.094737 3.900007 11.994778 0
 8.094712 3.700023 11.794767 0
 8.094624 3.500053 11.594705 0
 8.094363 3.300058 11.394443 0
 8.093734 3.099853 11.193604 0
 8.092539 2.898961 10.991513 0
 8.090991 2.696705 10.787704 0
 8.089789 2.492572 10.582368 0
 8.090695 2.287455 10.378159 0
 8.094004 2.084160 10.178166 0
 8.107946 1.908099 10.016048 0
 7.916114 1.953064 9.869176 0
 7.699193 1.920100 9.619289 0
 7.500632 1.911615 9.412246 0
 7.301202 1.907701 9.208901 0
 7.101138 1.906056 9.007194 0
 6.900765 1.905461 8.806229 0
 6.700394 1.905282 8.605684 0
 6.500159 1.905246 8.405406 0
 6.300050 1.905247 8.205301 0
 6.100012 1.905253 8.005271 0
 5.900002 1.905255 7.805268 0
 7.920671 7.202161 15.122851 0
 7.921124 7.001723 14.922872 0
 7.921262 6.800952 14.722240 0
 7.921363 6.600379 14.521777 0
 7.921448 6.400101 14.321590 0
 7.921503 6.200012 14.121554 0
 7.921527 5.999997 13.921572 0
 7.921536 5.799999 13.721581 0
 7.921538 5.600000 13.521590 0
 7.921539 5.400000 13.321589 0
 7.921539 5.200000 13.121596 0
 7.921539 5.000000 12.921596 0
 7.921539 4.800000 12.721595 0
 7.921539 4.600000 12.521585 0
 7.921538 4.400001 12.321581 0
 7.921536 4.200004 12.121586 0
 7.921528 4.000015 11.921584 0
 7.921495 3.800050 11.721580 0
 7.921392 3.600125 11.521543 0
 7.921106 3.400250 11.321379 0
 7.920386 3.200344 11.120750 0
 7.918751 3.000018 10.918780 0
 7.915699 2.798171 10.713871 0
 7.912557 2.593689 10.506251 0
 7.909859 2.385089 10.294951 0
 7.916215 2.176583 10.092796 0
 7.769251 2.080619 9.849876 0
 7.598040 2.085400 9.683434 0
 7.401307 2.080982 9.482286 0
 7.202183 2.079188 9.281369 0
 7.001782 2.078593 9.080373 0
 6.801054 2.078408 8.879469 0
 6.600491 2.078376 8.678869 0
 6.400184 2.078403 8.478591 0
 6.200055 2.078435 8.278499 0
 6.000012 2.078453 8.078474 0
 5.800001 2.078460 7.878476 0
 7.747691 6.700889 14.448608 0
 7.747958 6.500210 14.248206 0
 7.748168 6.299989 14.048195 0
 7.748273 6.099967 13.848281 0
 7.748313 5.899987 13.648345 0
 7.748327 5.699998 13.448367 0
 7.748332 5.500000 13.248383 0
 7.748333 5.300000 13.048376 0
 7.748334 5.100000 12.848385 0
 7.748334 4.900000 12.648383 0
 7.748333 4.700000 12.448383 0
 7.748332 4.500000 12.248380 0
 7.748328 4.300004 12.048380 0
 7.748316 4.100025 11.848380 0
 7.748277 3.900088 11.648401 0
 7.748154 3.700228 11.448414 0
 7.747837 3.500477 11.248341 0
 7.747137 3.300857 11.048015 0
 7.745611 3.101319 10.846944 0
 7.742054 2.901270 10.643331 0
 7.734031 2.697400 10.431438 0
 7.731332 2.490512 10.221850 0
 7.715331 2.267915 9.983245 0
 7.500977 2.251624 9.752596 0
 7.303854 2.250980 9.554832 0
 7.103647 2.251275 9.354923 0
 6.902344 2.251352 9.153706 0
 6.701195 2.251339 8.952541 0
 6.500512 2.251427 8.751943 0
 6.300180 2.251543 8.551730 0
 6.100049 2.251621 8.351674 0
 5.900009 2.251655 8.151675 0
 5.700000 2.251665 7.951680 0
 7.573880 6.600250 14.174163 0
 7.574561 6.399793 13.974388 0
 7.574910 6.199821 13.774764 0
 7.575043 5.999928 13.575004 0
 7.575090 5.799988 13.375124 0
 7.575112 5.600004 13.175155 0
 7.575123 5.400003 12.975172 0
 7.575128 5.200001 12.775170 0
 7.575129 5.000000 12.575171 0
 7.575128 4.799998 12.375173 0
 7.575124 4.599996 12.175160 0
 7.575115 4.399996 11.975153 0
 7.575098 4.200018 11.775151 0
 7.575058 4.000112 11.575202 0
 7.574933 3.800347 11.375314 0
 7.574574 3.600779 11.175382 0
 7.573779 3.401391 10.975187 0
 7.572503 3.202252 10.774770 0
 7.570318 3.003832 10.574168 0
 7.564512 2.806926 10.371447 0
 7.534124 2.593119 10.127248 0
 7.578265 2.404672 9.982938 0
 7.406755 2.419639 9.826392 0
 7.207006 2.423249 9.630259 0
 7.004527 2.424298 9.428828 0
 6.802338 2.424028 9.226370 0
 6.601114 2.424141 9.025260 0
 6.400464 2.424439 8.824912 0
 6.200158 2.424684 8.624844 0
 6.000041 2.424814 8.424869 0
 5.800009 2.424862 8.224883 0
 5.600003 2.424872 8.024889 0
 7.400393 6.499015 13.899447 0
 7.401360 6.299318 13.700712 0
 7.401683 6.099736 13.501458 0
 7.401784 5.899960 13.301785 0
 7.401840 5.700023 13.101903 0
 7.401884 5.500021 12.901949 0
 7.401910 5.300008 12.701956 0
 7.401920 5.100001 12.501965 0
 7.401920 4.899995 12.301953 0
 7.401912 4.699984 12.101933 0
 7.401892 4.499966 11.901894 0
 7.401860 4.299963 11.701855 0
 7.401821 4.100049 11.501897 0
 7.401742 3.900363 11.302134 0
 7.401453 3.701064 11.102539 0
 7.400558 3.502144 10.902722 0
 7.398678 3.303178 10.701872 0
 7.397244 3.104354 10.501609 0
 7.396869 2.907930 10.304809 0
 7.405969 2.738339 10.144313 0
 7.313740 2.593949 9.907696 0
 7.108208 2.599282 9.707500 0
 6.903466 2.596437 9.499912 0
 6.701893 2.596218 9.298118 0
 6.500976 2.596862 9.097842 0
 6.300426 2.597482 8.897913 0
 6.100166 2.597859 8.698032 0
 5.900070 2.598031 8.498109 0
 5.700036 2.598082 8.298130 0
 5.500020 2.598085 8.098118 0
 7.227750 6.397942 13.625729 0
 7.228303 6.199261 13.427607 0
 7.228359 5.999932 13.228329 0
 7.228419 5.800118 13.028567 0
 7.228533 5.600099 12.828674 0
 7.228634 5.400047 12.628719 0
 7.228690 5.200013 12.428740 0
 7.228707 4.999991 12.228737 0
 7.228694 4.799959 12.028693 0
 7.228652 4.599897 11.828585 0
 7.228584 4.399815 11.628429 0
 7.228517 4.199793 11.428342 0
 7.228503 4.000044 11.228569 0
 7.228488 3.800911 11.029421 0
 7.228018 3.602712 10.830749 0
 7.225955 3.405191 10.631165 0
 7.220392 3.205528 10.425935 0
 7.222239 3.005103 10.227354 0
 7.217866 2.790201 10.008080 0
 7.001481 2.767710 9.769198 0
 6.802310 2.766870 9.569185 0
 6.601788 2.768381 9.370173 0
 6.401031 2.769757 9.170794 0
 6.200559 2.770633 8.971201 0
 6.000339 2.771116 8.771467 0
 5.800220 2.771300 8.571534 0
 5.600135 2.771328 8.371475 0
 7.055428 6.298376 13.353839 0
 7.054894 6.100076 13.155009 0
 7.054683 5.900492 12.955204 0
 7.054866 5.700380 12.755282 0
 7.055157 5.500192 12.555387 0
 7.055366 5.300069 12.355475 0
 7.055458 5.099999 12.155493 0
 7.055461 4.899924 11.955416 0
 7.055388 4.699782 11.755202 0
 7.055244 4.499543 11.554815 0
 7.055079 4.299260 11.354365 0
 7.055042 4.099163 11.154235 0
 7.055341 3.899759 10.955122 0
 7.055895 3.701829 10.757746 0
 7.055636 3.506113 10.561762 0
 7.051824 3.313012 10.364851 0
 7.025085 3.104084 10.129182 0
 7.073992 2.920014 9.994017 0
 6.902282 2.933767 9.836060 0
 6.703349 2.938375 9.641732 0
 6.502329 2.941333 9.443670 0
 6.301538 2.942856 9.244403 0
 6.101200 2.943983 9.045192 0
 5.900901 2.944539 8.845448 0
 5.700603 2.944670 8.645288 0
 6.881126 5.600614 12.481775 0
 6.881736 5.400246 12.282010 0
 6.882077 5.200054 12.082164 0
 6.882175 4.999899 11.882105 0
 6.882082 4.799642 11.681754 0
 6.881815 4.599163 11.481007 0
 6.881443 4.398440 11.279906 0
 6.881188 4.197661 11.078872 0
 6.881483 3.997330 10.878834 0
 6.883006 3.798505 10.681532 0
 6.885648 3.602848 10.488509 0
 6.887191 3.411706 10.298913 0
 6.896906 3.246528 10.143447 0
 6.807559 3.105780 9.913350 0
 6.605196 3.113425 9.718630 0
 6.403300 3.113977 9.517285 0
 6.203310 3.116281 9.319602 0
 6.002806 3.117798 9.120616 0
 5.802030 3.118254 8.920296 0
 6.707357 5.500651 12.208036 0
 6.708319 5.300206 12.008557 0
 6.708727 5.099927 11.808679 0
 6.708698 4.899539 11.608262 0