TITLE      =  "2D FE Unstructured grid data" 
VARIABLES = "X", "Y", "U", "Dom" 
ZONE T="P1", F=FEPOINT, N= 1053 E= 1963  ET=TRIANGLE 
 0.000000 4.800000 4.800000 2
 0.173205 4.900000 5.073209 2
 0.000000 5.000000 5.000000 2
 0.000000 5.200000 5.200000 2
 0.173205 5.100000 5.273210 2
 0.173205 5.300000 5.473210 2
 0.000000 5.400000 5.400000 2
 0.173205 5.500000 5.673210 2
 0.000000 5.600000 5.600000 2
 0.173205 5.700000 5.873208 2
 0.000000 5.800000 5.800000 2
 0.173205 5.900000 6.073210 2
 0.000000 6.000000 6.000000 2
 0.173205 6.100000 6.273211 2
 0.000000 6.200000 6.200000 2
 0.173205 6.300000 6.473211 2
 0.000000 6.400000 6.400000 2
 0.173205 6.500000 6.673207 2
 0.000000 6.600000 6.600000 2
 0.173205 6.700000 6.873205 2
 0.000000 6.800000 6.800000 2
 0.173205 6.900000 7.073205 2
 0.000000 7.000000 7.000000 2
 0.173205 7.100000 7.273206 2
 0.000000 7.200000 7.200000 2
 0.173205 7.300000 7.473204 2
 0.000000 7.400000 7.400000 2
 0.173205 7.500000 7.673204 2
 0.000000 7.600000 7.600000 2
 0.173205 7.699999 7.873203 2
 0.000000 7.800000 7.800000 2
 0.173210 7.899996 8.073204 2
 0.000000 8.000000 8.000000 2
 0.173231 8.100002 8.273234 2
 0.000000 8.200000 8.200000 2
 0.173282 8.300057 8.473341 2
 0.000000 8.400000 8.400000 2
 0.173355 8.500252 8.673611 2
 0.000000 8.600000 8.600000 2
 0.173396 8.700693 8.874092 2
 0.000000 8.800000 8.800000 2
 0.173305 8.901406 9.074711 2
 0.000000 9.000000 9.000000 2
 0.173112 9.102262 9.275380 2
 0.000000 9.200000 9.200000 2
 0.173339 9.303297 9.476633 2
 0.000000 9.400000 9.400000 2
 0.175066 9.506494 9.681558 2
 0.000000 9.600000 9.600000 2
 0.164370 9.702746 9.867115 2
 0.000000 9.800000 9.800000 2
 0.087359 9.912414 9.999772 2
 0.000000 10.000000 10.000000 2
 0.200000 10.000000 10.200000 2
 0.295277 9.833226 10.128506 2
 0.400000 10.000000 10.400000 2
 0.491419 9.819784 10.311202 2
 0.600000 10.000000 10.600000 2
 0.696277 9.819970 10.516248 2
 0.800000 10.000000 10.800000 2
 0.898880 9.822006 10.720885 2
 1.000000 10.000000 11.000000 2
 1.099898 9.824569 10.924464 2
 1.200000 10.000000 11.200000 2
 1.300002 9.825985 11.125988 2
 1.400000 10.000000 11.400000 2
 1.499953 9.826576 11.326533 2
 1.600000 10.000000 11.600000 2
 1.699943 9.826763 11.526711 2
 1.800000 10.000000 11.800000 2
 1.899964 9.826800 11.726771 2
 2.000000 10.000000 12.000000 2
 2.099984 9.826799 11.926784 2
 2.200000 10.000000 12.200000 2
 2.299995 9.826796 12.126793 2
 2.400000 10.000000 12.400000 2
 2.499999 9.826795 12.326799 2
 2.600000 10.000000 12.600000 2
 2.700000 9.826795 12.526798 2
 2.800000 10.000000 12.800000 2
 2.900000 9.826795 12.726800 2
 3.000000 10.000000 13.000000 2
 3.100000 9.826795 12.926801 2
 3.200000 10.000000 13.200000 2
 3.300000 9.826795 13.126796 2
 3.400000 10.000000 13.400000 2
 3.500000 9.826795 13.326800 2
 3.600000 10.000000 13.600000 2
 3.700000 9.826795 13.526803 2
 3.800000 10.000000 13.800000 2
 3.900000 9.826795 13.726806 2
 4.000000 10.000000 14.000000 2
 4.100000 9.826795 13.926807 2
 4.200000 10.000000 14.200000 2
 4.300000 9.826795 14.126810 2
 4.400000 10.000000 14.400000 2
 4.500000 9.826795 14.326806 2
 4.600000 10.000000 14.600000 2
 4.700000 9.826795 14.526806 2
 4.800000 10.000000 14.800000 2
 4.900000 9.826795 14.726808 2
 5.000000 10.000000 15.000000 2
 5.200000 10.000000 15.200000 2
 5.100000 9.826795 14.926809 2
 5.300000 9.826795 15.126811 2
 5.400000 10.000000 15.400000 2
 5.500000 9.826795 15.326810 2
 5.600000 10.000000 15.600000 2
 5.700000 9.826795 15.526802 2
 5.800000 10.000000 15.800000 2
 5.900000 9.826795 15.726810 2
 6.000000 10.000000 16.000000 2
 6.100000 9.826795 15.926804 2
 6.200000 10.000000 16.200001 2
 6.300000 9.826795 16.126806 2
 6.400000 10.000000 16.400000 2
 6.500000 9.826795 16.326809 2
 6.600000 10.000000 16.600000 2
 6.700000 9.826795 16.526800 2
 6.800000 10.000000 16.799999 2
 6.900000 9.826795 16.726795 2
 7.000000 10.000000 17.000000 2
 7.100000 9.826795 16.926792 2
 7.200000 10.000000 17.200001 2
 0.173205 4.700000 4.873210 2
 0.149413 9.849668 9.999088 2
 0.346410 4.800000 5.146421 2
 0.346410 5.000000 5.346421 2
 0.346410 5.200000 5.546419 2
 0.346410 5.400000 5.746419 2
 0.346410 5.600000 5.946418 2
 0.346410 5.800000 6.146419 2
 0.346410 6.000000 6.346417 2
 0.346410 6.200000 6.546417 2
 0.346410 6.400000 6.746418 2
 0.346410 6.600000 6.946417 2
 0.346410 6.800000 7.146412 2
 0.346410 7.000000 7.346410 2
 0.346410 7.200000 7.546408 2
 0.346410 7.400000 7.746408 2
 0.346408 7.599998 7.946402 2
 0.346411 7.799990 8.146399 2
 0.346439 7.999973 8.346410 2
 0.346539 8.199990 8.546525 2
 0.346761 8.400186 8.746944 2
 0.347051 8.600819 8.947873 2
 0.347170 8.802126 9.149296 2
 0.346724 9.003945 9.350672 2
 0.345804 9.205498 9.551301 2
 0.346365 9.405966 9.752328 2
 0.366420 9.627176 9.993605 2
 0.590643 9.638189 10.228835 2
 0.797026 9.639455 10.436486 2
 1.000504 9.647519 10.648028 2
 1.200404 9.651418 10.851825 2
 1.400005 9.653032 11.053042 2
 1.599845 9.653549 11.253403 2
 1.799859 9.653640 11.453503 2
 1.999921 9.653622 11.653548 2
 2.199967 9.653599 11.853568 2
 2.399989 9.653590 12.053584 2
 2.599997 9.653589 12.253592 2
 2.799999 9.653589 12.453593 2
 3.000000 9.653590 12.653600 2
 3.200000 9.653590 12.853597 2
 3.400000 9.653590 13.053606 2
 3.600000 9.653590 13.253604 2
 3.800000 9.653590 13.453607 2
 4.000000 9.653590 13.653606 2
 4.200000 9.653590 13.853614 2
 4.400000 9.653590 14.053619 2
 4.600000 9.653590 14.253616 2
 4.800000 9.653590 14.453610 2
 5.000000 9.653590 14.653613 2
 5.200000 9.653590 14.853611 2
 5.400000 9.653590 15.053615 2
 5.600000 9.653590 15.253610 2
 5.800000 9.653590 15.453611 2
 6.000000 9.653590 15.653614 2
 6.200000 9.653590 15.853606 2
 6.400000 9.653590 16.053608 2
 6.600000 9.653590 16.253595 2
 6.800000 9.653590 16.453604 2
 7.000000 9.653590 16.653616 2
 7.200000 9.653590 16.853598 2
 0.519615 4.900000 5.419631 2
 0.519615 5.100000 5.619629 2
 0.519615 5.300000 5.819624 2
 0.519615 5.500000 6.019626 2
 0.519615 5.700000 6.219629 2
 0.519615 5.900000 6.419630 2
 0.519615 6.100000 6.619623 2
 0.519615 6.300000 6.819627 2
 0.519615 6.500000 7.019621 2
 0.519615 6.700000 7.219615 2
 0.519615 6.900000 7.419614 2
 0.519615 7.100000 7.619611 2
 0.519615 7.300002 7.819612 2
 0.519613 7.500002 8.019608 2
 0.519607 7.699993 8.219595 2
 0.519617 7.899950 8.419562 2
 0.519721 8.099868 8.619587 2
 0.520078 8.299863 8.819943 2
 0.520832 8.500332 9.021163 2
 0.521715 8.701867 9.223582 2
 0.522033 8.904896 9.426926 2
 0.520167 9.108484 9.628653 2
 0.516094 9.309842 9.825936 2
 0.502026 9.483924 9.985948 2
 0.691279 9.438541 10.129823 2
 0.905519 9.469888 10.375403 2
 1.102293 9.477044 10.579347 2
 1.300466 9.479819 10.780287 2
 1.499710 9.480616 10.980330 2
 1.699596 9.480661 11.180266 2
 1.899716 9.480534 11.380258 2
 2.099850 9.480433 11.580290 2
 2.299935 9.480390 11.780333 2
 2.499976 9.480380 11.980363 2
 2.699993 9.480382 12.180387 2
 2.899999 9.480384 12.380386 2
 3.100000 9.480385 12.580399 2
 3.300000 9.480385 12.780399 2
 3.500000 9.480385 12.980401 2
 3.700000 9.480385 13.180407 2
 3.900000 9.480385 13.380414 2
 4.100000 9.480385 13.580413 2
 4.300000 9.480385 13.780415 2
 4.500000 9.480385 13.980416 2
 4.700000 9.480385 14.180418 2
 4.900000 9.480385 14.380422 2
 5.100000 9.480385 14.580417 2
 5.300000 9.480385 14.780418 2
 5.500000 9.480385 14.980415 2
 5.700000 9.480385 15.180411 2
 5.900000 9.480385 15.380408 2
 6.100000 9.480385 15.580414 2
 6.300000 9.480385 15.780409 2
 6.500000 9.480385 15.980409 2
 6.700000 9.480385 16.180405 2
 6.900000 9.480385 16.380404 2
 7.100000 9.480385 16.580402 2
 0.519615 4.700000 5.219629 2
 7.300002 9.480387 16.780407 2
 0.692820 4.800000 5.492839 2
 0.692820 5.000000 5.692839 2
 0.692820 5.200000 5.892837 2
 0.692820 5.400000 6.092835 2
 0.692820 5.600000 6.292837 2
 0.692820 5.800000 6.492835 2
 0.692820 6.000000 6.692834 2
 0.692820 6.200000 6.892829 2
 0.692820 6.400000 7.092829 2
 0.692820 6.600000 7.292824 2
 0.692820 6.800000 7.492823 2
 0.692822 7.000001 7.692820 2
 0.692824 7.200005 7.892824 2
 0.692827 7.400013 8.092834 2
 0.692819 7.600022 8.292836 2
 0.692793 7.799987 8.492771 2
 0.692804 7.999825 8.692627 2
 0.693086 8.199495 8.892575 2
 0.694128 8.399289 9.093420 2
 0.696392 8.600256 9.296653 2
 0.698498 8.803503 9.502003 2
 0.699922 9.010504 9.710429 2
 0.692332 9.217192 9.909526 2
 0.837106 9.311172 10.148276 2
 1.006657 9.305138 10.311798 2
 1.201722 9.308072 10.509798 2
 1.399538 9.308581 10.708127 2
 1.599009 9.308180 10.907198 2
 1.799177 9.307693 11.106878 2
 1.999483 9.307365 11.306861 2
 2.199725 9.307206 11.506947 2
 2.399874 9.307160 11.707041 2
 2.599952 9.307162 11.907129 2
 2.799986 9.307173 12.107174 2
 2.999997 9.307178 12.307193 2
 3.200000 9.307179 12.507199 2
 3.400000 9.307179 12.707203 2
 3.600000 9.307179 12.907209 2
 3.800000 9.307179 13.107206 2
 4.000000 9.307179 13.307211 2
 4.200000 9.307179 13.507219 2
 4.400000 9.307179 13.707216 2
 4.600000 9.307179 13.907221 2
 4.800000 9.307179 14.107216 2
 5.000000 9.307179 14.307220 2
 5.200000 9.307179 14.507219 2
 5.400000 9.307179 14.707217 2
 5.600000 9.307179 14.907213 2
 5.800000 9.307179 15.107216 2
 6.000000 9.307179 15.307208 2
 6.200000 9.307179 15.507208 2
 6.400000 9.307179 15.707208 2
 6.600000 9.307179 15.907200 2
 6.800000 9.307179 16.107204 2
 7.000001 9.307179 16.307192 2
 7.200006 9.307181 16.507206 2
 0.692820 4.600000 5.292840 2
 7.400021 9.307189 16.707222 2
 0.866025 4.700000 5.566048 2
 0.866025 4.900000 5.766046 2
 0.866025 5.100000 5.966042 2
 0.866025 5.300000 6.166045 2
 0.866025 5.500000 6.366042 2
 0.866025 5.700000 6.566041 2
 0.866025 5.900000 6.766041 2
 0.866025 6.100000 6.966039 2
 0.866025 6.300000 7.166037 2
 0.866025 6.500000 7.366034 2
 0.866026 6.700000 7.566027 2
 0.866029 6.900002 7.766028 2
 0.866039 7.100008 7.966044 2
 0.866061 7.300032 8.166085 2
 0.866084 7.500082 8.366157 2
 0.866058 7.700128 8.566177 2
 0.865936 7.900033 8.765962 2
 0.865847 8.099525 8.965368 2
 0.866400 8.298420 9.164814 2
 0.868979 8.497291 9.366269 2
 0.875921 8.699565 9.575487 2
 0.877405 8.904689 9.782101 2
 0.891755 9.125154 10.016908 2
 1.103856 9.139504 10.243366 2
 1.299141 9.138507 10.437652 2
 1.497783 9.136682 10.634472 2
 1.697985 9.135341 10.833333 2
 1.898566 9.134526 11.033106 2
 2.099104 9.134078 11.233194 2
 2.299514 9.133916 11.433441 2
 2.499775 9.133906 11.633698 2
 2.699914 9.133938 11.833873 2
 2.899974 9.133962 12.033950 2
 3.099994 9.133972 12.233981 2
 3.299999 9.133974 12.433995 2
 3.500000 9.133975 12.634001 2
 3.700000 9.133975 12.834006 2
 3.900000 9.133975 13.034006 2
 4.100000 9.133975 13.234015 2
 4.300000 9.133975 13.434019 2
 4.500000 9.133975 13.634019 2
 4.700000 9.133975 13.834020 2
 4.900000 9.133975 14.034019 2
 5.100000 9.133975 14.234018 2
 5.300000 9.133975 14.434016 2
 5.500000 9.133975 14.634022 2
 5.700000 9.133975 14.834017 2
 5.900000 9.133975 15.034009 2
 6.100000 9.133975 15.234015 2
 6.300000 9.133975 15.434007 2
 6.500000 9.133975 15.634007 2
 6.700000 9.133975 15.833998 2
 6.900002 9.133974 16.034000 2
 7.100012 9.133974 16.233999 2
 7.300042 9.133979 16.434038 2
 0.866025 4.500000 5.366048 2
 7.500120 9.134007 16.634146 2
 1.039230 4.600000 5.639255 2
 1.039230 4.800000 5.839256 2
 1.039230 5.000000 6.039249 2
 1.039230 5.200000 6.239250 2
 1.039230 5.400000 6.439249 2
 1.039230 5.600000 6.639248 2
 1.039230 5.800000 6.839249 2
 1.039230 6.000000 7.039246 2
 1.039230 6.200000 7.239246 2
 1.039230 6.400000 7.439238 2
 1.039231 6.600001 7.639236 2
 1.039236 6.800003 7.839238 2
 1.039256 7.000013 8.039268 2
 1.039316 7.200050 8.239354 2
 1.039425 7.400152 8.439569 2
 1.039524 7.600350 8.639868 2
 1.039431 7.800554 8.839973 2
 1.038928 8.000355 9.039277 2
 1.038239 8.198991 9.237225 2
 1.038748 8.395752 9.434502 2
 1.043566 8.590389 9.633957 2
 1.072745 8.801568 9.874318 2
 1.028295 8.988511 10.016811 2
 1.197861 8.972159 10.170030 2
 1.395215 8.966660 10.361878 2
 1.595684 8.963572 10.559262 2
 1.796708 8.962122 10.758837 2
 1.997642 8.961090 10.958748 2
 2.198525 8.960625 11.159166 2
 2.399208 8.960560 11.359785 2
 2.599639 8.960635 11.560293 2
 2.799864 8.960711 11.760594 2
 2.999959 8.960751 11.960733 2
 3.199991 8.960765 12.160782 2
 3.399999 8.960769 12.360791 2
 3.600000 8.960770 12.560797 2
 3.800000 8.960770 12.760795 2
 4.000000 8.960770 12.960809 2
 4.200000 8.960770 13.160810 2
 4.400000 8.960770 13.360814 2
 4.600000 8.960770 13.560817 2
 4.800000 8.960770 13.760818 2
 5.000000 8.960770 13.960819 2
 5.200000 8.960770 14.160812 2
 5.400000 8.960770 14.360815 2
 5.600000 8.960770 14.560811 2
 5.800000 8.960770 14.760811 2
 6.000000 8.960770 14.960810 2
 6.200000 8.960770 15.160807 2
 6.400000 8.960770 15.360797 2
 6.600000 8.960770 15.560799 2
 6.800004 8.960769 15.760797 2
 7.000021 8.960766 15.960809 2
 7.200076 8.960763 16.160852 2
 7.400211 8.960773 16.361002 2
 7.600489 8.960849 16.561359 2
 1.212436 4.700000 5.912461 2
 1.212436 4.900000 6.112459 2
 1.212436 5.100000 6.312458 2
 1.212436 5.300000 6.512459 2
 1.212436 5.500000 6.712456 2
 1.212436 5.700000 6.912454 2
 1.212436 5.900000 7.112454 2
 1.212436 6.100000 7.312451 2
 1.212436 6.300000 7.512447 2
 1.212436 6.500001 7.712442 2
 1.212441 6.700006 7.912449 2
 1.212470 6.900021 8.112487 2
 1.212568 7.100065 8.312621 2
 1.212807 7.300199 8.513000 2
 1.213204 7.500542 8.713738 2
 1.213525 7.701184 8.914697 2
 1.213168 7.901902 9.115057 2
 1.211372 8.101635 9.313003 2
 1.208524 8.298485 9.507005 2
 1.207365 8.490920 9.698283 2
 1.198787 8.657331 9.856123 2
 1.289487 8.798874 10.088367 2
 1.491479 8.791008 10.282491 2
 1.693833 8.790569 10.484409 2
 1.894788 8.788484 10.683283 2
 2.096297 8.787249 10.883565 2
 2.297776 8.787024 11.084813 2
 2.498837 8.787168 11.286029 2
 2.699479 8.787353 11.486851 2
 2.899807 8.787477 11.687311 2
 3.099944 8.787536 11.887502 2
 3.299988 8.787558 12.087574 2
 3.499998 8.787563 12.287590 2
 3.700000 8.787564 12.487597 2
 3.900000 8.787564 12.687610 2
 4.100000 8.787564 12.887609 2
 4.300000 8.787564 13.087611 2
 4.500000 8.787564 13.287615 2
 4.700000 8.787564 13.487616 2
 4.900000 8.787564 13.687616 2
 5.100000 8.787564 13.887612 2
 5.300000 8.787564 14.087607 2
 5.500000 8.787564 14.287615 2
 5.700000 8.787564 14.487610 2
 5.900000 8.787564 14.687606 2
 6.100000 8.787564 14.887604 2
 6.300000 8.787564 15.087600 2
 6.500001 8.787563 15.287597 2
 6.700006 8.787560 15.487595 2
 6.900033 8.787551 15.687601 2
 7.100119 8.787532 15.887667 2
 7.300333 8.787510 16.087860 2
 7.500772 8.787518 16.288305 2
 7.701538 8.787665 16.489225 2
 1.385641 4.800000 6.185663 2
 1.385641 5.000000 6.385664 2
 1.385641 5.200000 6.585661 2
 1.385641 5.400000 6.785661 2
 1.385641 5.600000 6.985662 2
 1.385641 5.800000 7.185657 2
 1.385641 6.000000 7.385656 2
 1.385641 6.200000 7.585653 2
 1.385641 6.400003 7.785651 2
 1.385645 6.600013 7.985662 2
 1.385671 6.800036 8.185705 2
 1.385785 7.000087 8.385870 2
 1.386127 7.200213 8.586334 2
 1.386880 7.400575 8.787451 2
 1.388046 7.601508 8.989548 2
 1.388889 7.803306 9.192186 2
 1.387798 8.005581 9.393372 2
 1.382062 8.205519 9.587581 2
 1.373500 8.398758 9.772258 2
 1.381267 8.605203 9.986478 2
 1.592447 8.622175 10.214634 2
 1.789969 8.617206 10.407175 2
 1.991925 8.613585 10.605524 2
 2.194823 8.613128 10.807972 2
 2.396979 8.613378 11.010374 2
 2.598446 8.613739 11.212204 2
 2.799324 8.614036 11.413382 2
 2.999760 8.614221 11.614011 2
 3.199934 8.614312 11.814272 2
 3.399987 8.614347 12.014364 2
 3.599998 8.614357 12.214387 2
 3.800000 8.614359 12.414395 2
 4.000000 8.614359 12.614401 2
 4.200000 8.614359 12.814407 2
 4.400000 8.614359 13.014413 2
 4.600000 8.614359 13.214411 2
 4.800000 8.614359 13.414414 2
 5.000000 8.614359 13.614413 2
 5.200000 8.614359 13.814414 2
 5.400000 8.614359 14.014413 2
 5.600000 8.614359 14.214408 2
 5.800000 8.614359 14.414406 2
 6.000000 8.614359 14.614405 2
 6.200000 8.614359 14.814394 2
 6.400001 8.614357 15.014388 2
 6.600008 8.614349 15.214391 2
 6.800041 8.614325 15.414393 2
 7.000158 8.614272 15.614456 2
 7.200464 8.614189 15.814665 2
 7.401100 8.614105 16.015221 2
 7.602202 8.614091 16.216307 2
 7.803920 8.614282 16.418215 2
 7.902682 8.788234 16.690939 2
 1.385641 4.600000 5.985664 2
 8.006411 8.615168 16.621597 2
 1.558846 4.700000 6.258870 2
 1.558846 4.900000 6.458870 2
 1.558846 5.100000 6.658872 2
 1.558846 5.300000 6.858868 2
 1.558846 5.500000 7.058866 2
 1.558846 5.700000 7.258867 2
 1.558846 5.900000 7.458863 2
 1.558846 6.100001 7.658858 2
 1.558845 6.300006 7.858859 2
 1.558846 6.500023 8.058873 2
 1.558861 6.700066 8.258932 2
 1.558951 6.900141 8.459093 2
 1.559287 7.100255 8.659541 2
 1.560212 7.300487 8.860688 2
 1.562179 7.501207 9.063380 2
 1.565275 7.703406 9.268675 2
 1.567110 7.907842 9.474944 2
 1.565199 8.115053 9.680252 2
 1.546206 8.315174 9.861382 2
 1.515137 8.478414 9.993553 2
 1.681332 8.452022 10.133360 2
 1.883240 8.437768 10.321016 2
 2.089862 8.438546 10.528425 2
 2.293504 8.439113 10.732635 2
 2.496213 8.439630 10.935860 2
 2.698119 8.440176 11.138318 2
 2.899234 8.440637 11.339898 2
 3.099753 8.440932 11.540714 2
 3.299941 8.441079 11.741047 2
 3.499990 8.441135 11.941164 2
 3.699999 8.441151 12.141193 2
 3.900000 8.441154 12.341195 2
 4.100000 8.441154 12.541200 2
 4.300000 8.441154 12.741207 2
 4.500000 8.441154 12.941212 2
 4.700000 8.441154 13.141212 2
 4.900000 8.441154 13.341215 2
 5.100000 8.441154 13.541215 2
 5.300000 8.441154 13.741213 2
 5.500000 8.441154 13.941214 2
 5.700000 8.441154 14.141205 2
 5.900000 8.441154 14.341197 2
 6.100000 8.441154 14.541195 2
 6.300001 8.441152 14.741187 2
 6.500006 8.441138 14.941175 2
 6.700037 8.441092 15.141156 2
 6.900167 8.440974 15.341166 2
 7.100551 8.440766 15.541348 2
 7.301406 8.440505 15.741931 2
 7.502907 8.440312 15.943239 2
 7.705102 8.440290 16.145420 2
 7.908232 8.440257 16.348516 2
 1.732051 4.800000 6.532075 2
 1.732051 5.000000 6.732076 2
 1.732051 5.200000 6.932076 2
 1.732051 5.400000 7.132072 2
 1.732051 5.600000 7.332070 2
 1.732051 5.800000 7.532070 2
 1.732051 6.000001 7.732064 2
 1.732049 6.200009 7.932066 2
 1.732046 6.400037 8.132088 2
 1.732044 6.600110 8.332163 2
 1.732081 6.800243 8.532329 2
 1.732294 7.000411 8.732706 2
 1.733050 7.200540 8.933585 2
 1.735063 7.400663 9.135724 2
 1.739484 7.601478 9.340963 2
 1.748008 7.806480 9.554493 2
 1.749123 8.015097 9.764218 2
 1.759415 8.243134 10.002554 2
 1.984877 8.263465 10.248346 2
 2.188312 8.264641 10.452964 2
 2.392163 8.264791 10.656963 2
 2.595653 8.265425 10.861097 2
 2.798052 8.266356 11.064425 2
 2.999314 8.267144 11.266482 2
 3.199824 8.267626 11.467480 2
 3.399973 8.267846 11.667855 2
 3.600001 8.267923 11.867964 2
 3.800002 8.267944 12.067995 2
 4.000000 8.267949 12.268000 2
 4.200000 8.267949 12.468004 2
 4.400000 8.267949 12.668006 2
 4.600000 8.267949 12.868015 2
 4.800000 8.267949 13.068014 2
 5.000000 8.267949 13.268018 2
 5.200000 8.267949 13.468011 2
 5.400000 8.267949 13.668006 2
 5.600000 8.267949 13.868012 2
 5.800000 8.267949 14.068000 2
 6.000000 8.267950 14.267995 2
 6.200001 8.267948 14.467988 2
 6.400003 8.267935 14.667971 2
 6.600019 8.267870 14.867927 2
 6.800119 8.267676 15.067822 2
 7.000500 8.267258 15.267786 2
 7.201506 8.266623 15.468148 2
 7.403491 8.265994 15.669504 2
 7.606437 8.265835 15.872299 2
 7.809722 8.266250 16.075998 2
 8.012724 8.265565 16.278313 2
 1.905256 4.900000 6.805280 2
 1.905256 5.100000 7.005279 2
 1.905256 5.300000 7.205279 2
 1.905256 5.500000 7.405277 2
 1.905256 5.700000 7.605275 2
 1.905255 5.900002 7.805271 2
 1.905252 6.100012 8.005273 2
 1.905241 6.300050 8.205300 2
 1.905221 6.500155 8.405380 2
 1.905201 6.700376 8.605581 2
 1.905248 6.900702 8.805956 2
 1.905595 7.100961 9.006554 2
 1.906852 7.300796 9.207646 2
 1.910262 7.499844 9.410101 2
 1.918193 7.697887 9.616079 2
 1.950637 7.914224 9.864858 2
 1.905195 8.105431 10.010625 2
 2.081671 8.092043 10.173717 2
 2.285515 8.089336 10.374862 2
 2.491219 8.088972 10.580200 2
 2.695870 8.090572 10.786452 2
 2.898513 8.092359 10.990897 2
 3.099648 8.093670 11.193344 2
 3.299981 8.094345 11.394360 2
 3.500030 8.094620 11.594692 2
 3.700018 8.094711 11.794772 2
 3.900006 8.094737 11.994793 2
 4.100001 8.094743 12.194796 2
 4.300000 8.094744 12.394805 2
 4.500000 8.094744 12.594807 2
 4.700000 8.094744 12.794806 2
 4.900000 8.094744 12.994807 2
 5.100000 8.094744 13.194810 2
 5.300000 8.094744 13.394809 2
 5.500000 8.094744 13.594803 2
 5.700000 8.094745 13.794804 2
 5.900001 8.094746 13.994802 2
 6.100003 8.094748 14.194800 2
 6.300003 8.094746 14.394787 2
 6.499997 8.094692 14.594728 2
 6.700018 8.094465 14.794519 2
 6.900240 8.093843 14.994112 2
 7.101136 8.092621 15.193783 2
 7.303385 8.091028 15.394432 2
 7.507507 8.089787 15.597318 2
 7.712632 8.090658 15.803311 2
 7.916001 8.093883 16.009897 2
 8.092253 8.107602 16.199871 2
 8.238058 8.245457 16.483532 2
 8.248485 8.017168 16.265673 2
 8.047065 7.915984 15.963058 2
 2.078461 5.000000 7.078486 2
 2.078461 5.200000 7.278483 2
 2.078461 5.400000 7.478481 2
 2.078461 5.600000 7.678483 2
 2.078460 5.800002 7.878479 2
 2.078453 6.000012 8.078478 2
 2.078431 6.200055 8.278494 2
 2.078385 6.400184 8.478579 2
 2.078314 6.600483 8.678800 2
 2.078237 6.801019 8.879260 2
 2.078204 7.001676 9.079885 2
 2.078452 7.201922 9.280375 2
 2.079786 7.400774 9.480562 2
 2.083716 7.597122 9.680841 2
 2.078538 7.767920 9.846462 2
 2.174426 7.914770 10.089199 2
 2.383395 7.908900 10.292301 2
 2.592511 7.912008 10.504532 2
 2.797459 7.915435 10.712912 2
 2.999648 7.918645 10.918318 2
 3.200182 7.920352 11.120566 2
 3.400192 7.921098 11.321321 2
 3.600108 7.921392 11.521543 2
 3.800045 7.921496 11.721583 2
 4.000014 7.921528 11.921591 2
 4.200003 7.921536 12.121591 2
 4.400000 7.921538 12.321597 2
 4.600000 7.921539 12.521597 2
 4.800000 7.921539 12.721610 2
 5.000000 7.921539 12.921605 2
 5.200000 7.921539 13.121603 2
 5.400000 7.921539 13.321599 2
 5.600000 7.921539 13.521602 2
 5.800000 7.921542 13.721599 2
 6.000003 7.921551 13.921602 2
 6.200006 7.921570 14.121622 2
 6.399990 7.921570 14.321602 2
 6.599923 7.921422 14.521381 2
 6.799852 7.920802 14.720688 2
 7.000161 7.919147 14.919342 2
 7.201972 7.915965 15.117963 2
 7.406426 7.912672 15.319121 2
 7.615009 7.909873 15.524904 2
 7.823510 7.916173 15.739702 2
 7.919465 7.769210 15.688692 2
 8.079967 7.699140 15.779122 2
 7.914666 7.598018 15.512702 2
 8.088432 7.500603 15.589054 2
 8.092319 7.301176 15.393518 2
 7.919014 7.401294 15.320327 2
 7.920671 7.202161 15.122851 2
 2.251666 5.100000 7.351690 2
 2.251666 5.300000 7.551687 2
 2.251666 5.500000 7.751686 2
 2.251665 5.700000 7.951684 2
 2.251654 5.900009 8.151677 2
 2.251617 6.100050 8.351674 2
 2.251531 6.300183 8.551722 2
 2.251385 6.500513 8.751904 2
 2.251218 6.701183 8.952407 2
 2.251061 6.902292 9.153357 2
 2.250695 7.103502 9.354203 2
 2.250006 7.303535 9.553545 2
 2.250219 7.500392 9.750621 2
 2.266146 7.714409 9.980560 2
 2.489129 7.730742 10.219884 2
 2.696465 7.733715 10.430198 2
 2.900723 7.741913 10.642654 2
 3.101047 7.745561 10.846630 2
 3.300744 7.747126 11.047897 2
 3.500437 7.747838 11.248312 2
 3.700216 7.748157 11.448413 2
 3.900084 7.748278 11.648409 2
 4.100024 7.748317 11.848392 2
 4.300004 7.748328 12.048387 2
 4.500000 7.748332 12.248385 2
 4.700000 7.748333 12.448394 2
 4.900000 7.748334 12.648398 2
 5.100000 7.748334 12.848398 2
 5.300000 7.748334 13.048392 2
 5.500000 7.748334 13.248388 2
 5.699999 7.748337 13.448391 2
 5.900002 7.748352 13.648407 2
 6.100009 7.748398 13.848456 2
 6.300004 7.748482 14.048527 2
 6.499908 7.748530 14.248476 2
 6.699587 7.748238 14.447864 2
 6.899025 7.746879 14.645939 2
 7.098901 7.743095 14.842021 2
 7.302651 7.734631 15.037306 2
 7.509539 7.731553 15.241111 2
 7.732167 7.715353 15.447541 2
 7.748335 7.501046 15.249404 2
 7.748656 7.303959 15.052635 2
 7.921124 7.001723 14.922872 2
 7.747915 7.103678 14.851621 2
 7.747567 6.902187 14.649779 2
 7.921262 6.800952 14.722240 2
 7.747691 6.700889 14.448608 2
 2.424873 5.400000 7.824892 2
 2.424874 5.600000 8.024893 2
 2.424864 5.800005 8.224884 2
 2.424814 6.000040 8.424866 2
 2.424676 6.200160 8.624840 2
 2.424412 6.400469 8.824892 2
 2.424063 6.601118 9.025193 2
 2.423835 6.802324 9.226166 2
 2.423895 7.004465 9.428370 2
 2.422534 7.206843 9.629381 2
 2.418560 7.406425 9.824995 2
 2.403279 7.577728 9.981016 2
 2.592106 7.533823 10.125942 2
 2.806262 7.564362 10.370640 2
 3.003457 7.570261 10.573742 2
 3.202073 7.572492 10.774591 2
 3.401317 7.573784 10.975135 2
 3.600752 7.574581 11.175370 2
 3.800338 7.574939 11.375323 2
 4.000111 7.575061 11.575217 2
 4.200021 7.575100 11.775173 2
 4.399998 7.575116 11.975169 2
 4.599997 7.575124 12.175179 2
 4.799999 7.575128 12.375180 2
 5.000000 7.575129 12.575183 2
 5.200000 7.575129 12.775190 2
 5.400000 7.575129 12.975188 2
 5.599999 7.575131 13.175181 2
 5.800000 7.575148 13.375205 2
 6.000010 7.575214 13.575272 2
 6.200029 7.575380 13.775448 2
 6.399985 7.575666 13.975686 2
 6.599641 7.575929 14.175607 2
 6.798581 7.575597 14.374216 2
 6.996397 7.573352 14.569780 2
 7.192815 7.566543 14.759392 2
 7.406449 7.535078 14.941550 2
 7.595268 7.578503 15.173798 2
 7.579806 7.407219 14.987047 2
 7.575139 7.207515 14.782679 2
 7.573007 7.004591 14.577626 2
 7.573136 6.801752 14.374921 2
 7.573880 6.600250 14.174163 2
 2.598095 5.700013 8.298123 2
 2.598049 5.900046 8.498108 2
 2.597872 6.100151 8.698034 2
 2.597476 6.300423 8.897917 2
 2.596818 6.500985 9.097815 2
 2.596102 6.701903 9.298017 2
 2.596188 6.903456 9.499658 2
 2.598819 7.108148 9.706979 2
 2.593208 7.313585 9.906803 2
 2.737675 7.405842 10.143536 2
 2.907501 7.396818 10.304339 2
 3.104120 7.397239 10.501388 2
 3.303066 7.398692 10.701793 2
 3.502099 7.400577 10.902710 2
 3.701054 7.401469 11.102565 2
 3.900374 7.401756 11.302174 2
 4.100068 7.401834 11.501945 2
 4.299983 7.401870 11.701901 2
 4.499979 7.401898 11.901930 2
 4.699991 7.401915 12.101954 2
 4.899998 7.401922 12.301970 2
 5.100000 7.401924 12.501979 2
 5.300002 7.401923 12.701983 2
 5.500004 7.401923 12.901985 2
 5.700010 7.401937 13.102004 2
 5.900026 7.402008 13.302083 2
 6.100066 7.402225 13.502342 2
 6.300113 7.402696 13.702854 2
 6.499981 7.403486 13.903506 2
 6.699100 7.404406 14.103542 2
 6.896491 7.404594 14.301122 2
 7.091061 7.402380 14.493475 2
 7.260177 7.408800 14.669007 2
 7.404015 7.315458 14.719500 2
 7.395728 7.109600 14.505365 2
 7.396633 6.902971 14.299635 2
 7.398360 6.699879 14.098274 2
 7.400393 6.499015 13.899447 2
 2.771375 5.800104 8.571499 2
 2.771208 6.000234 8.771453 2
 2.770708 6.200493 8.971215 2
 2.769780 6.401011 9.170806 2
 2.768332 6.601799 9.370143 2
 2.766730 6.802329 9.569070 2
 2.767443 7.001482 9.768940 2
 2.789770 7.217824 10.007614 2
 3.004847 7.222243 10.227111 2
 3.205392 7.220417 10.425838 2
 3.405137 7.225986 10.631153 2
 3.602723 7.228052 10.830806 2
 3.800975 7.228528 11.029539 2
 4.000141 7.228550 11.228733 2
 4.199892 7.228564 11.428495 2
 4.399891 7.228621 11.628557 2
 4.599943 7.228674 11.828666 2
 4.799980 7.228704 12.028728 2
 4.999997 7.228715 12.228759 2
 5.200007 7.228717 12.428776 2
 5.400022 7.228714 12.628786 2
 5.600050 7.228718 12.828823 2
 5.800099 7.228773 13.028928 2
 6.000179 7.228998 13.229223 2
 6.200305 7.229566 13.429916 2
 6.400444 7.230638 13.631129 2
 6.600226 7.232457 13.832719 2
 6.798473 7.234999 14.033509 2
 6.993329 7.236845 14.230209 2
 7.204820 7.223364 14.428216 2
 7.218233 7.003456 14.221716 2
 7.218993 6.798610 14.017638 2
 7.225412 6.596582 13.822028 2
 7.227750 6.397942 13.625729 2
 2.944842 5.900488 8.845346 2
 2.944321 6.100876 9.045213 2
 2.943111 6.301359 9.244486 2
 2.941442 6.502273 9.443726 2
 2.938346 6.703360 9.641720 2
 2.933628 6.902309 9.835956 2
 2.919777 7.074007 9.993803 2
 3.103961 7.025118 10.129093 2
 3.312979 7.051863 10.364863 2
 3.506199 7.055682 10.561912 2
 3.702053 7.055967 10.758051 2
 3.900093 7.055463 10.955591 2
 4.099527 7.055203 11.154767 2
 4.299567 7.055236 11.354839 2
 4.499747 7.055355 11.555146 2
 4.699891 7.055447 11.755383 2
 4.899968 7.055492 11.955502 2
 5.100009 7.055508 12.155569 2
 5.300053 7.055508 12.355609 2
 5.500133 7.055498 12.555680 2
 5.700271 7.055514 12.755832 2
 5.900481 7.055684 12.956209 2
 6.100739 7.056276 13.157054 2
 6.301001 7.057511 13.358548 2
 6.501451 7.059349 13.560836 2
 6.701508 7.063075 13.764620 2
 6.898578 7.069412 13.968028 2
 7.067957 7.086519 14.154510 2
 7.022577 6.899694 13.922312 2
 7.050794 6.688996 13.739826 2
 7.055077 6.494744 13.549853 2
 7.055428 6.298376 13.353839 2
 3.117218 6.202582 9.319816 2
 3.114595 6.402964 9.517577 2
 3.113686 6.605107 9.718803 2
 3.105796 6.807573 9.913383 2
 3.246566 6.896933 10.143518 2
 3.411945 6.887214 10.299182 2
 3.603405 6.885714 10.489144 2
 3.799394 6.883211 10.682637 2
 3.998385 6.881881 10.880300 2
 4.198628 6.881684 11.080353 2
 4.399142 6.881866 11.281047 2
 4.599571 6.882074 11.481682 2
 4.799835 6.882210 11.682086 2
 4.999977 6.882277 11.882298 2
 5.200088 6.882298 12.082428 2
 5.400254 6.882287 12.282585 2
 5.600543 6.882260 12.482854 2
 5.801002 6.882306 12.683357 2
 6.001642 6.882720 12.884403 2
 6.202217 6.884153 13.086411 2
 6.402333 6.886526 13.288894 2
 6.604114 6.887469 13.491618 2
 6.805897 6.896061 13.701990 2
 6.895675 6.755200 13.650913 2
 6.886317 6.589180 13.475531 2
 6.884709 6.397314 13.282053 2
 6.881883 6.201017 13.082933 2
 7.054894 6.100076 13.155009 2
 7.054683 5.900492 12.955204 2
 6.880410 6.001700 12.882142 2
 6.880466 5.801201 12.681703 2
 7.054866 5.700380 12.755282 2
 6.881126 5.600614 12.481775 2
 3.288837 6.306361 9.595216 2
 3.282647 6.503179 9.785845 2
 3.298705 6.713931 10.012660 2
 3.504291 6.721057 10.225374 2
 3.696660 6.713190 10.409877 2
 4.699407 6.708754 11.408203 2
 4.899822 6.708954 11.608815 2
 5.100086 6.709057 11.809187 2
 5.300387 6.709079 12.009506 2
 5.500879 6.709036 12.209957 2
 5.701659 6.708968 12.410666 2
 5.902831 6.709016 12.611889 2
 6.104554 6.709742 12.814336 2
 6.305386 6.713605 13.019028 2
 6.502120 6.718897 13.221053 2
 6.712865 6.702562 13.415465 2
 6.719636 6.496871 13.216548 2
 6.710800 6.304371 13.015202 2