TITLE      =  "2D FE Unstructured grid data" 
VARIABLES = "X", "Y", "U", "Dom" 
ZONE T="P1", F=FEPOINT, N= 776 E= 1443  ET=TRIANGLE 
 10.000000 4.800000 14.800000 0
 9.826795 4.700000 14.526808 0
 10.000000 4.600000 14.600000 0
 9.826795 4.500000 14.326806 0
 10.000000 4.400000 14.400000 0
 9.826795 4.300000 14.126804 0
 10.000000 4.200000 14.200000 0
 9.826795 4.100000 13.926807 0
 10.000000 4.000000 14.000000 0
 9.826795 3.900000 13.726803 0
 10.000000 3.800000 13.800000 0
 9.826795 3.700000 13.526797 0
 10.000000 3.600000 13.600000 0
 9.826795 3.500000 13.326802 0
 10.000000 3.400000 13.400000 0
 9.826795 3.300000 13.126805 0
 10.000000 3.200000 13.200000 0
 9.826795 3.100000 12.926799 0
 10.000000 3.000000 13.000000 0
 9.826795 2.900000 12.726802 0
 10.000000 2.800000 12.800000 0
 9.826795 2.700000 12.526798 0
 10.000000 2.600000 12.600000 0
 9.826796 2.500000 12.326798 0
 10.000000 2.400000 12.400000 0
 9.826795 2.300001 12.126798 0
 10.000000 2.200000 12.200000 0
 9.826790 2.100004 11.926795 0
 10.000000 2.000000 12.000000 0
 9.826769 1.899997 11.726771 0
 10.000000 1.800000 11.800000 0
 9.826718 1.699942 11.526670 0
 10.000000 1.600000 11.600000 0
 9.826645 1.499748 11.326398 0
 10.000000 1.400000 11.400000 0
 9.826605 1.299307 11.125916 0
 10.000000 1.200000 11.200000 0
 9.826694 1.098594 10.925289 0
 10.000000 1.000000 11.000000 0
 9.826888 0.897739 10.724624 0
 10.000000 0.800000 10.800000 0
 9.826661 0.696703 10.523364 0
 10.000000 0.600000 10.600000 0
 9.824934 0.493506 10.318438 0
 10.000000 0.400000 10.400000 0
 9.835630 0.297254 10.132885 0
 10.000000 0.200000 10.200000 0
 9.912641 0.087587 10.000228 0
 10.000000 0.000000 10.000000 0
 9.800000 0.000000 9.800000 0
 9.600000 0.000000 9.600000 0
 9.704722 0.166774 9.871499 0
 9.400000 0.000000 9.400000 0
 9.508581 0.180216 9.688796 0
 9.200000 0.000000 9.200000 0
 9.303722 0.180030 9.483758 0
 9.000000 0.000000 9.000000 0
 9.101120 0.177994 9.279118 0
 8.800000 0.000000 8.800000 0
 8.900103 0.175431 9.075531 0
 8.600000 0.000000 8.600000 0
 8.699998 0.174015 8.874016 0
 8.400000 0.000000 8.400000 0
 8.500047 0.173424 8.673471 0
 8.200000 0.000000 8.200000 0
 8.300056 0.173237 8.473293 0
 8.000000 0.000000 8.000000 0
 8.100037 0.173200 8.273236 0
 7.800000 0.000000 7.800000 0
 7.900016 0.173201 8.073215 0
 7.600000 0.000000 7.600000 0
 7.700005 0.173204 7.873207 0
 7.400000 0.000000 7.400000 0
 7.500001 0.173205 7.673204 0
 7.200000 0.000000 7.200000 0
 7.300000 0.173205 7.473204 0
 7.000000 0.000000 7.000000 0
 7.100000 0.173205 7.273202 0
 6.800000 0.000000 6.800000 0
 6.900000 0.173205 7.073204 0
 6.600000 0.000000 6.600000 0
 6.700000 0.173205 6.873204 0
 6.400000 0.000000 6.400000 0
 6.500000 0.173205 6.673206 0
 6.200000 0.000000 6.200000 0
 6.300000 0.173205 6.473207 0
 6.000000 0.000000 6.000000 0
 6.100000 0.173205 6.273205 0
 5.800000 0.000000 5.800000 0
 5.900000 0.173205 6.073208 0
 5.600000 0.000000 5.600000 0
 5.700000 0.173205 5.873211 0
 5.400000 0.000000 5.400000 0
 5.500000 0.173205 5.673209 0
 5.200000 0.000000 5.200000 0
 5.300000 0.173205 5.473206 0
 9.826795 4.900000 14.726805 0
 9.850587 0.150333 10.000923 0
 5.100000 0.173205 5.273209 0
 9.653590 4.800000 14.453611 0
 9.653590 4.600000 14.253606 0
 9.653590 4.400000 14.053611 0
 9.653590 4.200000 13.853604 0
 9.653590 4.000000 13.653601 0
 9.653590 3.800000 13.453601 0
 9.653590 3.600000 13.253608 0
 9.653590 3.400000 13.053606 0
 9.653590 3.200000 12.853604 0
 9.653590 3.000000 12.653594 0
 9.653590 2.800000 12.453600 0
 9.653590 2.600000 12.253592 0
 9.653592 2.400002 12.053604 0
 9.653589 2.200010 11.853604 0
 9.653562 2.000027 11.653597 0
 9.653461 1.800009 11.453474 0
 9.653239 1.599814 11.253059 0
 9.652949 1.399181 11.052138 0
 9.652830 1.197874 10.850714 0
 9.653275 0.996054 10.649326 0
 9.654196 0.794502 10.448697 0
 9.653635 0.594034 10.247677 0
 9.633580 0.372823 10.006401 0
 9.409357 0.361810 9.771171 0
 9.202974 0.360545 9.563525 0
 8.999496 0.352481 9.351980 0
 8.799597 0.348583 9.148181 0
 8.599996 0.346968 8.946969 0
 8.400155 0.346451 8.746599 0
 8.200141 0.346361 8.546501 0
 8.000079 0.346379 8.346457 0
 7.800033 0.346402 8.146431 0
 7.600011 0.346410 7.946416 0
 7.400003 0.346411 7.746407 0
 7.200001 0.346411 7.546405 0
 7.000000 0.346410 7.346405 0
 6.800000 0.346410 7.146408 0
 6.600000 0.346410 6.946410 0
 6.400000 0.346410 6.746412 0
 6.200000 0.346410 6.546414 0
 6.000000 0.346410 6.346414 0
 5.800000 0.346410 6.146415 0
 5.600000 0.346410 5.946415 0
 5.400000 0.346410 5.746412 0
 5.200000 0.346410 5.546411 0
 9.653590 5.000000 14.653608 0
 5.000000 0.346410 5.346412 0
 9.480385 4.900000 14.380411 0
 9.480385 4.700000 14.180410 0
 9.480385 4.500000 13.980408 0
 9.480385 4.300000 13.780398 0
 9.480385 4.100000 13.580407 0
 9.480385 3.900000 13.380400 0
 9.480385 3.700000 13.180402 0
 9.480385 3.500000 12.980400 0
 9.480385 3.300000 12.780399 0
 9.480385 3.100000 12.580400 0
 9.480385 2.900000 12.380403 0
 9.480386 2.699999 12.180392 0
 9.480391 2.499998 11.980388 0
 9.480398 2.300007 11.780409 0
 9.480389 2.100050 11.580448 0
 9.480285 1.900133 11.380424 0
 9.479924 1.700137 11.180070 0
 9.479170 1.499668 10.978841 0
 9.478285 1.298133 10.776427 0
 9.477967 1.095104 10.573075 0
 9.479834 0.891516 10.371355 0
 9.483906 0.690157 10.174061 0
 9.497973 0.516076 10.014050 0
 9.308722 0.561459 9.870183 0
 9.094481 0.530112 9.624599 0
 8.897707 0.522956 9.420668 0
 8.699534 0.520181 9.219714 0
 8.500291 0.519385 9.019679 0
 8.300405 0.519342 8.819749 0
 8.100284 0.519471 8.619746 0
 7.900150 0.519573 8.419719 0
 7.700065 0.519616 8.219675 0
 7.500023 0.519623 8.019639 0
 7.300007 0.519620 7.819618 0
 7.100001 0.519617 7.619610 0
 6.900000 0.519615 7.419610 0
 6.700000 0.519615 7.219613 0
 6.500000 0.519615 7.019612 0
 6.300000 0.519615 6.819617 0
 6.100000 0.519615 6.619621 0
 5.900000 0.519615 6.419627 0
 5.700000 0.519615 6.219624 0
 5.500000 0.519615 6.019627 0
 5.300000 0.519615 5.819623 0
 5.100000 0.519615 5.619624 0
 9.307179 4.800000 14.107207 0
 9.307179 4.600000 13.907209 0
 9.307179 4.400000 13.707207 0
 9.307179 4.200000 13.507206 0
 9.307179 4.000000 13.307205 0
 9.307179 3.800000 13.107205 0
 9.307179 3.600000 12.907206 0
 9.307179 3.400000 12.707199 0
 9.307179 3.200000 12.507198 0
 9.307179 2.999999 12.307195 0
 9.307180 2.799995 12.107190 0
 9.307187 2.599985 11.907185 0
 9.307206 2.399977 11.707193 0
 9.307241 2.200013 11.507259 0
 9.307230 2.000178 11.307412 0
 9.306939 1.800509 11.107456 0
 9.305885 1.600714 10.906608 0
 9.303614 1.399746 10.703363 0
 9.301503 1.196497 10.498004 0
 9.300078 0.989496 10.289574 0
 9.307668 0.782809 10.090478 0
 9.162893 0.688829 9.851720 0
 8.993343 0.694862 9.688207 0
 8.798278 0.691929 9.490207 0
 8.600464 0.691424 9.291888 0
 8.400994 0.691834 9.092836 0
 8.200827 0.692332 8.893152 0
 8.000520 0.692669 8.693172 0
 7.800275 0.692829 8.493089 0
 7.600124 0.692866 8.292974 0
 7.400046 0.692852 8.092892 0
 7.200013 0.692833 7.892835 0
 7.000003 0.692824 7.692817 0
 6.800000 0.692821 7.492815 0
 6.600000 0.692820 7.292819 0
 6.400000 0.692820 7.092824 0
 6.200000 0.692820 6.892828 0
 6.000000 0.692820 6.692831 0
 5.800000 0.692820 6.492832 0
 5.600000 0.692820 6.292831 0
 5.400000 0.692820 6.092834 0
 5.200000 0.692820 5.892830 0
 9.307179 5.000000 14.307208 0
 5.000000 0.692820 5.692827 0
 9.133975 4.900000 14.034005 0
 9.133975 4.700000 13.834009 0
 9.133975 4.500000 13.634004 0
 9.133975 4.300000 13.434001 0
 9.133975 4.100000 13.234006 0
 9.133975 3.900000 13.034006 0
 9.133975 3.700000 12.834002 0
 9.133975 3.500000 12.633997 0
 9.133975 3.300000 12.433990 0
 9.133974 3.099998 12.233989 0
 9.133974 2.899988 12.033981 0
 9.133978 2.699961 11.833953 0
 9.134001 2.499909 11.633924 0
 9.134073 2.299867 11.433950 0
 9.134215 2.099976 11.234200 0
 9.134283 1.900495 11.034790 0
 9.133684 1.701602 10.835295 0
 9.131061 1.502725 10.633793 0
 9.124093 1.300443 10.424544 0
 9.122599 1.095314 10.217920 0
 9.108246 0.874847 9.983098 0
 8.896146 0.860498 9.756646 0
 8.700866 0.861507 9.562377 0
 8.502232 0.863358 9.365589 0
 8.302035 0.864744 9.166771 0
 8.101452 0.865608 8.967047 0
 7.900900 0.866078 8.766966 0
 7.700478 0.866220 8.566687 0
 7.500211 0.866181 8.366378 0
 7.300076 0.866104 8.166168 0
 7.100021 0.866053 7.966063 0
 6.900004 0.866032 7.766027 0
 6.700001 0.866026 7.566023 0
 6.500000 0.866025 7.366024 0
 6.300000 0.866025 7.166031 0
 6.100000 0.866025 6.966035 0
 5.900000 0.866025 6.766038 0
 5.700000 0.866025 6.566042 0
 5.500000 0.866025 6.366040 0
 5.300000 0.866025 6.166040 0
 5.100000 0.866025 5.966040 0
 9.133975 5.100000 14.234005 0
 8.960770 5.000000 13.960808 0
 8.960770 4.800000 13.760804 0
 8.960770 4.600000 13.560805 0
 8.960770 4.400000 13.360800 0
 8.960770 4.200000 13.160800 0
 8.960770 4.000000 12.960799 0
 8.960770 3.800000 12.760796 0
 8.960770 3.600000 12.560794 0
 8.960770 3.400000 12.360788 0
 8.960769 3.199996 12.160785 0
 8.960766 2.999979 11.960763 0
 8.960763 2.799926 11.760702 0
 8.960771 2.599804 11.560589 0
 8.960836 2.399608 11.360459 0
 8.961060 2.199445 11.160514 0
 8.961563 1.999703 10.961274 0
 8.962123 1.801100 10.763239 0
 8.961451 1.604329 10.565787 0
 8.956517 1.409660 10.366183 0
 8.927285 1.198459 10.125751 0
 8.971709 1.011493 9.983200 0
 8.802156 1.027864 9.830025 0
 8.604830 1.033423 9.638257 0
 8.404392 1.036631 9.441021 0
 8.203375 1.038248 9.241613 0
 8.002403 1.039413 9.041808 0
 7.801457 1.039881 8.841320 0
 7.600734 1.039816 8.640541 0
 7.400304 1.039573 8.439864 0
 7.200104 1.039376 8.239474 0
 7.000029 1.039276 8.039292 0
 6.800006 1.039240 7.839238 0
 6.600001 1.039232 7.639230 0
 6.400000 1.039231 7.439236 0
 6.200000 1.039230 7.239241 0
 6.000000 1.039230 7.039245 0
 5.800000 1.039230 6.839249 0
 5.600000 1.039230 6.639246 0
 5.400000 1.039230 6.439247 0
 5.200000 1.039230 6.239248 0
 5.000000 1.039230 6.039247 0
 8.787564 4.900000 13.687603 0
 8.787564 4.700000 13.487602 0
 8.787564 4.500000 13.287596 0
 8.787564 4.300000 13.087594 0
 8.787564 4.100000 12.887594 0
 8.787564 3.900000 12.687593 0
 8.787564 3.700000 12.487586 0
 8.787563 3.499999 12.287586 0
 8.787560 3.299994 12.087568 0
 8.787551 3.099968 11.887538 0
 8.787533 2.899883 11.687435 0
 8.787511 2.699674 11.487204 0
 8.787519 2.499275 11.286812 0
 8.787670 2.298691 11.086371 0
 8.788253 2.098170 10.886436 0
 8.789836 1.898629 10.688477 0
 8.792221 1.701819 10.494051 0
 8.792980 1.509298 10.302291 0
 8.801353 1.342790 10.144148 0
 8.710614 1.201247 9.911867 0
 8.508730 1.209343 9.718077 0
 8.306453 1.210192 9.516642 0
 8.105444 1.212754 9.318192 0
 7.903730 1.214213 9.117929 0
 7.702051 1.214218 8.916255 0
 7.500936 1.213598 8.714522 0
 7.300362 1.212997 8.513349 0
 7.100121 1.212644 8.312750 0
 6.900037 1.212494 8.112522 0
 6.700010 1.212448 7.912455 0
 6.500002 1.212437 7.712440 0
 6.300000 1.212436 7.512445 0
 6.100000 1.212436 7.312449 0
 5.900000 1.212436 7.112452 0
 5.700000 1.212436 6.912454 0
 5.500000 1.212436 6.712456 0
 5.300000 1.212436 6.512459 0
 5.100000 1.212436 6.312459 0
 8.787564 5.100000 13.887599 0
 8.614359 5.000000 13.614402 0
 8.614359 4.800000 13.414397 0
 8.614359 4.600000 13.214405 0
 8.614359 4.400000 13.014400 0
 8.614359 4.200000 12.814392 0
 8.614359 4.000000 12.614388 0
 8.614359 3.800000 12.414388 0
 8.614358 3.600000 12.214383 0
 8.614349 3.399994 12.014360 0
 8.614326 3.199962 11.814312 0
 8.614273 2.999846 11.614136 0
 8.614191 2.799542 11.413749 0
 8.614109 2.598920 11.213043 0
 8.614108 2.397896 11.012018 0
 8.614361 2.196484 10.810850 0
 8.615487 1.994905 10.610402 0
 8.620175 1.795360 10.415540 0
 8.627611 1.601984 10.229604 0
 8.619170 1.395246 10.014422 0
 8.408265 1.378965 9.787233 0
 8.210850 1.385088 9.595934 0
 8.008467 1.389786 9.398242 0
 7.804851 1.390228 9.195069 0
 7.602309 1.388886 8.991181 0
 7.400953 1.387343 8.788280 0
 7.200369 1.386347 8.586706 0
 7.000139 1.385873 8.386003 0
 6.800050 1.385701 8.185749 0
 6.600016 1.385652 7.985669 0
 6.400004 1.385642 7.785651 0
 6.200001 1.385641 7.585651 0
 6.000000 1.385641 7.385655 0
 5.800000 1.385641 7.185658 0
 5.600000 1.385641 6.985662 0
 5.400000 1.385641 6.785662 0
 5.200000 1.385641 6.585662 0
 8.441154 4.900000 13.341198 0
 8.441154 4.700000 13.141195 0
 8.441154 4.500000 12.941193 0
 8.441154 4.300000 12.741196 0
 8.441154 4.100000 12.541187 0
 8.441154 3.900000 12.341179 0
 8.441152 3.700001 12.141177 0
 8.441137 3.499998 11.941159 0
 8.441090 3.299971 11.741082 0
 8.440974 3.099846 11.540833 0
 8.440769 2.899465 11.340251 0
 8.440510 2.698614 11.139136 0
 8.440325 2.497134 10.937469 0
 8.440343 2.295050 10.735403 0
 8.440477 2.092296 10.532778 0
 8.440657 1.886963 10.327622 0
 8.456622 1.686969 10.143598 0
 8.486101 1.522864 10.008965 0
 8.320724 1.550891 9.871616 0
 8.118619 1.568232 9.686851 0
 7.910056 1.569237 9.479282 0
 7.704708 1.566725 9.271421 0
 7.501908 1.563083 9.064977 0
 7.300817 1.560709 8.861513 0
 7.100385 1.559523 8.659900 0
 6.900183 1.559046 8.459223 0
 6.700077 1.558892 8.258969 0
 6.500026 1.558854 8.058882 0
 6.300006 1.558847 7.858862 0
 6.100001 1.558846 7.658856 0
 5.900000 1.558846 7.458857 0
 5.700000 1.558846 7.258864 0
 5.500000 1.558846 7.058864 0
 5.300000 1.558846 6.858866 0
 8.267949 4.800000 13.068001 0
 8.267949 4.600000 12.867990 0
 8.267949 4.400000 12.667987 0
 8.267949 4.200000 12.467987 0
 8.267949 4.000000 12.267977 0
 8.267944 3.800003 12.067976 0
 8.267925 3.600008 11.867957 0
 8.267854 3.400002 11.667878 0
 8.267656 3.199914 11.467592 0
 8.267243 2.999542 11.266799 0
 8.266620 2.798540 11.065172 0
 8.266002 2.596555 10.862567 0
 8.265861 2.393630 10.659499 0
 8.266347 2.190456 10.456805 0
 8.265920 1.987779 10.253707 0
 8.246576 1.763064 10.009641 0
 8.017666 1.751873 9.769539 0
 7.808210 1.750072 9.558275 0
 7.602533 1.740929 9.343452 0
 7.401227 1.735968 9.137186 0
 7.200796 1.733546 8.934335 0
 7.000508 1.732529 8.733031 0
 6.800273 1.732174 8.532444 0
 6.600117 1.732074 8.332194 0
 6.400039 1.732053 8.132095 0
 6.200009 1.732050 7.932068 0
 6.000001 1.732051 7.732063 0
 5.800000 1.732051 7.532065 0
 5.600000 1.732051 7.332071 0
 5.400000 1.732051 7.132070 0
 8.267949 5.000000 13.268001 0
 5.200000 1.732051 6.932069 0
 8.094744 4.900000 12.994793 0
 8.094744 4.700000 12.794793 0
 8.094744 4.500000 12.594796 0
 8.094744 4.300000 12.394786 0
 8.094743 4.100001 12.194779 0
 8.094737 3.900007 11.994780 0
 8.094712 3.700023 11.794759 0
 8.094624 3.500053 11.594701 0
 8.094363 3.300058 11.394444 0
 8.093734 3.099853 11.193602 0
 8.092539 2.898961 10.991510 0
 8.090991 2.696705 10.787703 0
 8.089789 2.492572 10.582365 0
 8.090695 2.287455 10.378148 0
 8.094004 2.084160 10.178166 0
 8.107946 1.908099 10.016045 0
 7.916114 1.953064 9.869175 0
 7.699193 1.920100 9.619285 0
 7.500632 1.911615 9.412240 0
 7.301202 1.907701 9.208899 0
 7.101138 1.906056 9.007186 0
 6.900765 1.905461 8.806227 0
 6.700394 1.905282 8.605677 0
 6.500159 1.905246 8.405399 0
 6.300050 1.905247 8.205302 0
 6.100012 1.905253 8.005275 0
 5.900002 1.905255 7.805263 0
 5.700000 1.905256 7.605271 0
 5.500000 1.905256 7.405276 0
 5.300000 1.905256 7.205276 0
 5.100000 1.905256 7.005276 0
 7.921539 4.800000 12.721593 0
 7.921539 4.600000 12.521585 0
 7.921538 4.400001 12.321581 0
 7.921536 4.200004 12.121581 0
 7.921528 4.000015 11.921578 0
 7.921495 3.800050 11.721572 0
 7.921392 3.600125 11.521539 0
 7.921106 3.400250 11.321381 0
 7.920386 3.200344 11.120747 0
 7.918751 3.000018 10.918777 0
 7.915699 2.798171 10.713873 0
 7.912557 2.593689 10.506245 0
 7.909859 2.385089 10.294948 0
 7.916215 2.176583 10.092797 0
 7.769251 2.080619 9.849864 0
 7.598040 2.085400 9.683430 0
 7.401307 2.080982 9.482275 0
 7.202183 2.079188 9.281357 0
 7.001782 2.078593 9.080370 0
 6.801054 2.078408 8.879467 0
 6.600491 2.078376 8.678870 0
 6.400184 2.078403 8.478586 0
 6.200055 2.078435 8.278491 0
 6.000012 2.078453 8.078474 0
 5.800001 2.078460 7.878475 0
 5.600000 2.078461 7.678479 0
 5.400000 2.078461 7.478479 0
 5.200000 2.078461 7.278480 0
 7.921539 5.000000 12.921590 0
 7.748334 4.900000 12.648386 0
 7.748333 4.700000 12.448380 0
 7.748332 4.500000 12.248382 0
 7.748328 4.300004 12.048371 0
 7.748316 4.100025 11.848385 0
 7.748277 3.900088 11.648401 0
 7.748154 3.700228 11.448408 0
 7.747837 3.500477 11.248340 0
 7.747137 3.300857 11.048004 0
 7.745611 3.101319 10.846944 0
 7.742054 2.901270 10.643330 0
 7.734031 2.697400 10.431433 0
 7.731332 2.490512 10.221843 0
 7.715331 2.267915 9.983240 0
 7.500977 2.251624 9.752596 0
 7.303854 2.250980 9.554824 0
 7.103647 2.251275 9.354918 0
 6.902344 2.251352 9.153697 0
 6.701195 2.251339 8.952537 0
 6.500512 2.251427 8.751939 0
 6.300180 2.251543 8.551723 0
 6.100049 2.251621 8.351673 0
 5.900009 2.251655 8.151673 0
 5.700000 2.251665 7.951678 0
 5.500000 2.251666 7.751681 0
 5.300000 2.251666 7.551682 0
 7.748334 5.100000 12.848382 0
 5.100000 2.251666 7.351686 0
 7.575129 5.000000 12.575174 0
 7.575128 4.799998 12.375165 0
 7.575124 4.599996 12.175159 0
 7.575115 4.399996 11.975150 0
 7.575098 4.200018 11.775150 0
 7.575058 4.000112 11.575200 0
 7.574933 3.800347 11.375307 0
 7.574574 3.600779 11.175377 0
 7.573779 3.401391 10.975186 0
 7.572503 3.202252 10.774768 0
 7.570318 3.003832 10.574153 0
 7.564512 2.806926 10.371443 0
 7.534124 2.593119 10.127248 0
 7.578265 2.404672 9.982936 0
 7.406755 2.419639 9.826389 0
 7.207006 2.423249 9.630251 0
 7.004527 2.424298 9.428818 0
 6.802338 2.424028 9.226365 0
 6.601114 2.424141 9.025253 0
 6.400464 2.424439 8.824904 0
 6.200158 2.424684 8.624845 0
 6.000041 2.424814 8.424863 0
 5.800009 2.424862 8.224881 0
 5.600003 2.424872 8.024891 0
 5.400002 2.424872 7.824887 0
 5.200001 2.424871 7.624885 0
 5.000000 2.424871 7.424889 0
 7.401920 4.899995 12.301956 0
 7.401912 4.699984 12.101933 0
 7.401892 4.499966 11.901895 0
 7.401860 4.299963 11.701859 0
 7.401821 4.100049 11.501902 0
 7.401742 3.900363 11.302131 0
 7.401453 3.701064 11.102543 0
 7.400558 3.502144 10.902722 0
 7.398678 3.303178 10.701871 0
 7.397244 3.104354 10.501604 0
 7.396869 2.907930 10.304807 0
 7.405969 2.738339 10.144311 0
 7.313740 2.593949 9.907682 0
 7.108208 2.599282 9.707497 0
 6.903466 2.596437 9.499908 0
 6.701893 2.596218 9.298111 0
 6.500976 2.596862 9.097839 0
 6.300426 2.597482 8.897911 0
 6.100166 2.597859 8.698028 0
 5.900070 2.598031 8.498109 0
 5.700036 2.598082 8.298127 0
 5.500020 2.598085 8.098116 0
 5.300009 2.598080 7.898102 0
 5.100002 2.598078 7.698097 0
 7.401920 5.100001 12.501962 0
 4.899997 2.598078 7.498092 0
 7.228707 4.999991 12.228738 0
 7.228694 4.799959 12.028684 0
 7.228652 4.599897 11.828588 0
 7.228584 4.399815 11.628433 0
 7.228517 4.199793 11.428343 0
 7.228503 4.000044 11.228571 0
 7.228488 3.800911 11.029424 0
 7.228018 3.602712 10.830748 0
 7.225955 3.405191 10.631166 0
 7.220392 3.205528 10.425932 0
 7.222239 3.005103 10.227352 0
 7.217866 2.790201 10.008074 0
 7.001481 2.767710 9.769191 0
 6.802310 2.766870 9.569183 0
 6.601788 2.768381 9.370176 0
 6.401031 2.769757 9.170794 0
 6.200559 2.770633 8.971194 0
 6.000339 2.771116 8.771461 0
 5.800220 2.771300 8.571526 0
 5.600135 2.771328 8.371474 0
 5.400070 2.771310 8.171389 0
 5.200027 2.771293 7.971333 0
 4.999999 2.771287 7.771303 0
 4.799970 2.771295 7.571280 0
 7.055461 4.899924 11.955415 0
 7.055388 4.699782 11.755200 0
 7.055244 4.499543 11.554815 0
 7.055079 4.299260 11.354368 0
 7.055042 4.099163 11.154227 0
 7.055341 3.899759 10.955121 0
 7.055895 3.701829 10.757738 0
 7.055636 3.506113 10.561764 0
 7.051824 3.313012 10.364852 0
 7.025085 3.104084 10.129179 0
 7.073992 2.920014 9.994009 0
 6.902282 2.933767 9.836051 0
 6.703349 2.938375 9.641728 0
 6.502329 2.941333 9.443665 0
 6.301538 2.942856 9.244403 0
 6.101200 2.943983 9.045188 0
 5.900901 2.944539 8.845449 0
 5.700603 2.944670 8.645287 0
 5.500349 2.944624 8.444983 0
 5.300164 2.944554 8.244735 0
 5.100044 2.944515 8.044568 0
 4.899949 2.944519 7.844481 0
 7.055458 5.099999 12.155491 0
 4.699821 2.944566 7.644402 0
 6.882175 4.999899 11.882099 0
 6.882082 4.799642 11.681750 0
 6.881815 4.599163 11.481004 0
 6.881443 4.398440 11.279908 0
 6.881188 4.197661 11.078867 0
 6.881483 3.997330 10.878830 0
 6.883006 3.798505 10.681526 0
 6.885648 3.602848 10.488512 0
 6.887191 3.411706 10.298910 0
 6.896906 3.246528 10.143443 0
 6.807559 3.105780 9.913348 0
 6.605196 3.113425 9.718628 0
 6.403300 3.113977 9.517287 0
 6.203310 3.116281 9.319599 0
 6.002806 3.117798 9.120608 0
 5.802030 3.118254 8.920295 0
 5.601278 3.118198 8.719487 0
 5.400676 3.117987 8.518674 0
 5.200269 3.117822 8.318100 0
 4.999989 3.117771 8.117775 0
 4.799702 3.117842 7.917556 0
 6.708698 4.899539 11.608258 0
 6.708280 4.698785 11.407082 0
 6.707546 4.497481 11.205047 0
 6.706819 4.295703 11.002542 0
 6.706699 4.093930 10.800644 0
 6.707966 3.892879 10.600860 0
 6.713069 3.694792 10.407874 0
 6.721134 3.503249 10.224392 0
 6.714007 3.298263 10.012276 0
 6.503598 3.281546 9.785157 0
 6.307525 3.286827 9.594361 0
 6.107226 3.291108 9.398344 0
 5.905461 3.292304 9.197767 0
 5.703693 3.292384 8.996085 0
 5.502136 3.291913 8.794059 0
 5.301006 3.291391 8.592409 0
 5.100268 3.291113 8.391394 0
 4.899672 3.291137 8.190820 0
 4.698908 3.291465 7.990390 0
 6.534647 4.798604 11.333270 0
 6.533405 4.596767 11.130183 0
 6.531759 4.393763 10.925533 0
 6.530834 4.190064 10.720909 0
 6.531560 3.986812 10.518384 0
 6.533312 3.782964 10.316285 0
 6.550257 3.585893 10.136164 0
 6.580191 3.424278 10.004478 0
 6.415909 3.450574 9.866487 0
 6.216805 3.465732 9.682552 0
 6.012115 3.466950 9.479074 0
 5.808833 3.467701 9.276543 0
 5.605465 3.467008 9.072483 0
 5.402808 3.465672 8.868487 0
 5.201106 3.464736 8.665850 0
 4.999941 3.464459 8.464413 0
 4.798752 3.464832 8.263597 0
 6.535142 4.999551 11.534712 0
 6.360919 4.898767 11.259699 0
 6.359250 4.696793 11.056055 0
 6.356237 4.492949 10.849202 0
 6.352998 4.286659 10.639670 0
 6.353514 4.080087 10.433611 0
 6.357468 3.877417 10.234899 0
 6.342303 3.656801 9.999116 0
 6.120941 3.640646 9.761600 0
 5.918134 3.644237 9.562383 0
 5.711941 3.644645 9.356591 0
 5.506257 3.641587 9.147850 0
 5.302824 3.639053 8.941888 0
 5.100743 3.637913 8.738667 0
 4.899042 3.637994 8.537048 0
 6.185367 4.797679 10.983050 0
 6.181274 4.594276 10.775558 0
 6.174655 4.387145 10.561809 0
 6.167640 4.173211 10.340858 0
 6.179339 3.963414 10.142759 0
 6.206383 3.791509 9.997907 0
 6.034045 3.817878 9.851929 0
 5.824357 3.828679 9.653043 0
 5.611322 3.820980 9.432305 0
 5.405224 3.814687 9.219920 0
 5.202112 3.811705 9.013821 0
 4.999848 3.810969 8.810824 0
 4.797530 3.811940 8.609483 0
 6.007491 4.697156 10.704651 0
 5.999539 4.492769 10.492313 0
 5.985254 4.281757 10.267014 0
 5.956914 4.038933 9.995855 0
 5.714865 4.007560 9.722430 0
 5.506200 3.991862 9.498067 0
 5.303460 3.985818 9.289288 0
 5.101062 3.983914 9.084984 0
 4.898533 3.984063 8.882608 0
 4.696011 3.986255 8.682278 0
 5.825511 4.598698 10.424213 0
 5.817083 4.397943 10.215032 0
 5.790763 4.201298 9.992067 0
 5.598191 4.166802 9.764997 0
 5.403332 4.158935 9.562273 0
 5.202557 4.156714 9.359277 0
 4.999789 4.156389 9.156186 0
 4.796943 4.157049 8.954002 0
 5.835851 4.800506 10.636364 0
 5.659755 4.707521 10.367283 0
 5.627558 4.497765 10.125326 0
 5.668088 4.317640 9.985735 0
 5.502778 4.327365 9.830148 0
 5.304957 4.328632 9.633599 0
 5.101945 4.329381 9.431333 0
 4.897652 4.329564 9.227226 0
 4.694493 4.329161 9.023667 0
 5.502953 4.640473 10.143425 0
 5.410894 4.498173 9.909076 0
 5.206214 4.504466 9.710685 0
 4.999890 4.503228 9.503125 0
 4.793485 4.504927 9.298419 0
 5.495658 4.807553 10.303216 0
 4.588579 4.498978 9.087567 0
 5.317714 4.693514 10.011228 0
 5.100462 4.676728 9.777191 0
 4.899690 4.677087 9.576781 0
 4.682240 4.694730 9.376980 0
 4.673819 4.906794 9.580622 0
 4.822480 4.827415 9.649903 0
 5.178312 4.826221 10.004535 0
 5.000582 4.858382 9.858967 0
 4.857446 5.002383 9.859835 0
 1 2 3 
 3 4 5 
 5 6 7 
 7 8 9 
 9 10 11 
 11 12 13 
 13 14 15 
 15 16 17 
 17 18 19 
 19 20 21 
 21 22 23 
 23 24 25 
 25 26 27 
 27 28 29 
 29 30 31 
 31 32 33 
 33 34 35 
 35 36 37 
 37 38 39 
 39 40 41 
 41 42 43 
 43 44 45 
 45 46 47 
 48 49 47 
 50 49 48 
 51 50 52 
 53 51 54 
 55 53 56 
 57 55 58 
 59 57 60 
 61 59 62 
 63 61 64 
 65 63 66 
 67 65 68 
 69 67 70 
 71 69 72 
 73 71 74 
 75 73 76 
 77 75 78 
 79 77 80 
 81 79 82 
 83 81 84 
 85 83 86 
 87 85 88 
 89 87 90 
 91 89 92 
 93 91 94 
 95 93 96 
 1 97 2 
 3 2 4 
 5 4 6 
 7 6 8 
 9 8 10 
 11 10 12 
 13 12 14 
 15 14 16 
 17 16 18 
 19 18 20 
 21 20 22 
 23 22 24 
 25 24 26 
 27 26 28 
 29 28 30 
 31 30 32 
 33 32 34 
 35 34 36 
 37 36 38 
 39 38 40 
 41 40 42 
 43 42 44 
 45 44 46 
 46 98 47 
 98 48 47 
 98 50 48 
 52 50 98 
 51 52 54 
 53 54 56 
 55 56 58 
 57 58 60 
 59 60 62 
 61 62 64 
 63 64 66 
 65 66 68 
 67 68 70 
 69 70 72 
 71 72 74 
 73 74 76 
 75 76 78 
 77 78 80 
 79 80 82 
 81 82 84 
 83 84 86 
 85 86 88 
 87 88 90 
 89 90 92 
 91 92 94 
 93 94 96 
 95 96 99 
 100 2 97 
 101 4 2 
 102 6 4 
 103 8 6 
 104 10 8 
 105 12 10 
 106 14 12 
 107 16 14 
 108 18 16 
 109 20 18 
 110 22 20 
 111 24 22 
 112 26 24 
 113 28 26 
 114 30 28 
 115 32 30 
 116 34 32 
 117 36 34 
 118 38 36 
 119 40 38 
 120 42 40 
 121 44 42 
 122 46 44 
 52 98 46 
 52 122 54 
 56 54 123 
 58 56 124 
 60 58 125 
 62 60 126 
 64 62 127 
 64 128 66 
 68 66 129 
 70 68 130 
 72 70 131 
 74 72 132 
 76 74 133 
 78 76 134 
 80 78 135 
 82 80 136 
 84 82 137 
 86 84 138 
 88 86 139 
 90 88 140 
 92 90 141 
 94 92 142 
 96 94 143 
 99 96 144 
 145 100 97 
 100 101 2 
 101 102 4 
 102 103 6 
 103 104 8 
 104 105 10 
 105 106 12 
 106 107 14 
 107 108 16 
 108 109 18 
 109 110 20 
 110 111 22 
 111 112 24 
 112 113 26 
 113 114 28 
 114 115 30 
 115 116 32 
 116 117 34 
 117 118 36 
 118 119 38 
 119 120 40 
 120 121 42 
 121 122 44 
 52 46 122 
 122 123 54 
 56 123 124 
 58 124 125 
 60 125 126 
 62 126 127 
 64 127 128 
 128 129 66 
 68 129 130 
 70 130 131 
 72 131 132 
 74 132 133 
 76 133 134 
 78 134 135 
 80 135 136 
 82 136 137 
 84 137 138 
 86 138 139 
 88 139 140 
 90 140 141 
 92 141 142 
 94 142 143 
 96 143 144 
 99 144 146 
 145 147 100 
 100 148 101 
 149 102 101 
 102 150 103 
 151 104 103 
 152 105 104 
 153 106 105 
 106 154 107 
 155 108 107 
 156 109 108 
 157 110 109 
 158 111 110 
 159 112 111 
 160 113 112 
 114 113 161 
 162 115 114 
 163 116 115 
 164 117 116 
 165 118 117 
 166 119 118 
 167 120 119 
 168 121 120 
 122 121 169 
 122 169 123 
 124 123 170 
 125 124 171 
 126 125 172 
 127 126 173 
 128 127 174 
 129 128 175 
 130 129 176 
 130 177 131 
 132 131 178 
 133 132 179 
 134 133 180 
 135 134 181 
 136 135 182 
 137 136 183 
 138 137 184 
 139 138 185 
 140 139 186 
 141 140 187 
 142 141 188 
 143 142 189 
 144 143 190 
 146 144 191 
 147 148 100 
 148 149 101 
 102 149 150 
 150 151 103 
 151 152 104 
 152 153 105 
 106 153 154 
 154 155 107 
 155 156 108 
 156 157 109 
 157 158 110 
 158 159 111 
 159 160 112 
 161 113 160 
 161 162 114 
 162 163 115 
 163 164 116 
 164 165 117 
 165 166 118 
 166 167 119 
 167 168 120 
 168 169 121 
 170 123 169 
 124 170 171 
 125 171 172 
 126 172 173 
 127 173 174 
 128 174 175 
 129 175 176 
 130 176 177 
 177 178 131 
 132 178 179 
 133 179 180 
 134 180 181 
 135 181 182 
 136 182 183 
 137 183 184 
 138 184 185 
 139 185 186 
 140 186 187 
 141 187 188 
 142 188 189 
 143 189 190 
 144 190 191 
 147 192 148 
 193 149 148 
 194 150 149 
 150 195 151 
 196 152 151 
 197 153 152 
 198 154 153 
 154 199 155 
 200 156 155 
 201 157 156 
 202 158 157 
 159 158 203 
 204 160 159 
 205 161 160 
 206 162 161 
 207 163 162 
 208 164 163 
 209 165 164 
 210 166 165 
 211 167 166 
 212 168 167 
 170 169 168 
 171 170 213 
 172 171 214 
 172 215 173 
 174 173 216 
 175 174 217 
 176 175 218 
 176 219 177 
 178 177 220 
 179 178 221 
 179 222 180 
 181 180 223 
 181 224 182 
 183 182 225 
 184 183 226 
 185 184 227 
 186 185 228 
 187 186 229 
 187 230 188 
 189 188 231 
 190 189 232 
 191 190 233 
 234 192 147 
 192 193 148 
 193 194 149 
 150 194 195 
 195 196 151 
 196 197 152 
 197 198 153 
 154 198 199 
 199 200 155 
 200 201 156 
 201 202 157 
 203 158 202 
 203 204 159 
 204 205 160 
 205 206 161 
 206 207 162 
 207 208 163 
 208 209 164 
 209 210 165 
 210 211 166 
 211 212 167 
 212 170 168 
 213 170 212 
 171 213 214 
 172 214 215 
 215 216 173 
 174 216 217 
 175 217 218 
 176 218 219 
 219 220 177 
 178 220 221 
 179 221 222 
 222 223 180 
 181 223 224 
 224 225 182 
 183 225 226 
 184 226 227 
 185 227 228 
 186 228 229 
 187 229 230 
 230 231 188 
 189 231 232 
 233 190 232 
 191 233 235 
 236 192 234 
 237 193 192 
 238 194 193 
 239 195 194 
 195 240 196 
 241 197 196 
 198 197 242 
 243 199 198 
 244 200 199 
 201 200 245 
 246 202 201 
 247 203 202 
 204 203 248 
 249 205 204 
 250 206 205 
 251 207 206 
 252 208 207 
 209 208 253 
 210 209 254 
 255 211 210 
 256 212 211 
 213 212 256 
 213 256 214 
 215 214 257 
 215 258 216 
 216 259 217 
 218 217 260 
 219 218 261 
 220 219 262 
 221 220 263 
 221 264 222 
 223 222 265 
 224 223 266 
 224 267 225 
 225 268 226 
 227 226 269 
 227 270 228 
 229 228 271 
 230 229 272 
 231 230 273 
 232 231 274 
 232 275 233 
 233 276 235 
 277 236 234 
 237 192 236 
 238 193 237 
 238 239 194 
 195 239 240 
 240 241 196 
 242 197 241 
 242 243 198 
 243 244 199 
 245 200 244 
 245 246 201 
 246 247 202 
 248 203 247 
 248 249 204 
 249 250 205 
 250 251 206 
 251 252 207 
 253 208 252 
 254 209 253 
 254 255 210 
 255 256 211 
 256 257 214 
 215 257 258 
 258 259 216 
 259 260 217 
 218 260 261 
 219 261 262 
 220 262 263 
 221 263 264 
 264 265 222 
 223 265 266 
 224 266 267 
 267 268 225 
 268 269 226 
 227 269 270 
 270 271 228 
 229 271 272 
 230 272 273 
 231 273 274 
 232 274 275 
 233 275 276 
 278 236 277 
 236 279 237 
 237 280 238 
 281 239 238 
 282 240 239 
 283 241 240 
 284 242 241 
 285 243 242 
 286 244 243 
 244 287 245 
 246 245 288 
 289 247 246 
 290 248 247 
 291 249 248 
 292 250 249 
 293 251 250 
 252 251 294 
 253 252 295 
 254 253 296 
 297 255 254 
 256 255 298 
 256 298 257 