TITLE      =  "2D FE Unstructured grid data" 
VARIABLES = "X", "Y", "U", "Dom" 
ZONE T="P1", F=FEPOINT, N= 776 E= 1441  ET=TRIANGLE 
 5.300000 9.826795 0.000000 3
 5.400000 10.000000 15.400000 3
 5.200000 10.000000 15.200000 3
 5.500000 9.826795 0.000000 3
 5.600000 10.000000 15.600000 3
 5.700000 9.826795 0.000000 3
 5.800000 10.000000 15.800000 3
 5.900000 9.826795 0.000000 3
 6.000000 10.000000 16.000000 3
 6.100000 9.826795 0.000000 3
 6.200000 10.000000 16.200001 3
 6.300000 9.826795 0.000000 3
 6.400000 10.000000 16.400000 3
 6.500000 9.826795 0.000000 3
 6.600000 10.000000 16.600000 3
 6.700000 9.826795 0.000000 3
 6.800000 10.000000 16.799999 3
 6.900000 9.826795 0.000000 3
 7.000000 10.000000 17.000000 3
 7.100000 9.826795 0.000000 3
 7.200000 10.000000 17.200001 3
 7.300000 9.826795 0.000000 3
 7.400000 10.000000 17.400000 3
 7.500000 9.826796 0.000000 3
 7.600000 10.000000 17.600000 3
 7.700002 9.826799 0.000000 3
 7.800000 10.000000 17.799999 3
 7.900011 9.826811 0.000000 3
 8.000000 10.000000 18.000000 3
 8.100041 9.826840 0.000000 3
 8.200000 10.000000 18.200001 3
 8.300128 9.826893 0.000000 3
 8.400000 10.000000 18.400000 3
 8.500334 9.826964 0.000000 3
 8.600000 10.000000 18.600000 3
 8.700749 9.827041 0.000000 3
 8.800000 10.000000 18.799999 3
 8.901427 9.827153 0.000000 3
 9.000000 10.000000 19.000000 3
 9.102324 9.827316 0.000000 3
 9.200000 10.000000 19.200001 3
 9.303625 9.827213 0.000000 3
 9.400000 10.000000 19.400000 3
 9.507698 9.826240 0.000000 3
 9.600000 10.000000 19.600000 3
 9.707205 9.840112 0.000000 3
 9.800000 10.000000 19.799999 3
 9.868964 9.869840 0.000000 3
 10.000000 10.000000 20.000000 3
 10.000000 9.800000 19.799999 3
 9.837681 9.709203 0.000000 3
 10.000000 9.600000 19.600000 3
 9.820952 9.509867 0.000000 3
 10.000000 9.400000 19.400000 3
 9.820171 9.304181 0.000000 3
 10.000000 9.200000 19.200001 3
 9.821795 9.101304 0.000000 3
 10.000000 9.000000 19.000000 3
 9.824164 8.900148 0.000000 3
 10.000000 8.800000 18.799999 3
 9.825560 8.699957 0.000000 3
 10.000000 8.600000 18.600000 3
 9.826258 8.499968 0.000000 3
 10.000000 8.400000 18.400000 3
 9.826588 8.299988 0.000000 3
 10.000000 8.200000 18.200001 3
 9.826729 8.099998 0.000000 3
 10.000000 8.000000 18.000000 3
 9.826778 7.900001 0.000000 3
 10.000000 7.800000 17.799999 3
 9.826792 7.700001 0.000000 3
 10.000000 7.600000 17.600000 3
 9.826795 7.500000 0.000000 3
 10.000000 7.400000 17.400000 3
 9.826795 7.300000 0.000000 3
 10.000000 7.200000 17.200001 3
 9.826795 7.100000 0.000000 3
 10.000000 7.000000 17.000000 3
 9.826795 6.900000 0.000000 3
 10.000000 6.800000 16.799999 3
 9.826795 6.700000 0.000000 3
 10.000000 6.600000 16.600000 3
 9.826795 6.500000 0.000000 3
 10.000000 6.400000 16.400000 3
 9.826795 6.300000 0.000000 3
 10.000000 6.200000 16.200001 3
 9.826795 6.100000 0.000000 3
 10.000000 6.000000 16.000000 3
 9.826795 5.900000 0.000000 3
 10.000000 5.800000 15.800000 3
 9.826795 5.700000 0.000000 3
 10.000000 5.600000 15.600000 3
 9.826795 5.500000 0.000000 3
 10.000000 5.400000 15.400000 3
 9.826795 5.300000 0.000000 3
 10.000000 5.200000 15.200000 3
 9.826795 5.100000 0.000000 3
 10.000000 5.000000 15.000000 3
 9.826795 4.900000 0.000000 3
 10.000000 4.800000 14.800000 3
 5.100000 9.826795 0.000000 3
 5.200000 9.653590 0.000000 3
 5.400000 9.653590 0.000000 3
 5.600000 9.653590 0.000000 3
 5.800000 9.653590 0.000000 3
 6.000000 9.653590 0.000000 3
 6.200000 9.653590 0.000000 3
 6.400000 9.653590 0.000000 3
 6.600000 9.653590 0.000000 3
 6.800000 9.653590 0.000000 3
 7.000000 9.653590 0.000000 3
 7.200000 9.653590 0.000000 3
 7.400001 9.653591 0.000000 3
 7.600004 9.653597 0.000000 3
 7.800018 9.653618 0.000000 3
 8.000062 9.653674 0.000000 3
 8.200181 9.653785 0.000000 3
 8.400465 9.653945 0.000000 3
 8.601070 9.654096 0.000000 3
 8.802207 9.654192 0.000000 3
 9.003881 9.654489 0.000000 3
 9.205553 9.655162 0.000000 3
 9.406587 9.654738 0.000000 3
 9.629012 9.635622 0.000000 3
 9.638646 9.410381 0.000000 3
 9.639001 9.203550 0.000000 3
 9.646443 8.999763 0.000000 3
 9.650084 8.799567 0.000000 3
 9.651889 8.599755 0.000000 3
 9.652842 8.399879 0.000000 3
 9.653315 8.199951 0.000000 3
 9.653508 7.999991 0.000000 3
 9.653569 7.800005 0.000000 3
 9.653584 7.600005 0.000000 3
 9.653588 7.400002 0.000000 3
 9.653589 7.200001 0.000000 3
 9.653590 7.000000 0.000000 3
 9.653590 6.800000 0.000000 3
 9.653590 6.600000 0.000000 3
 9.653590 6.400000 0.000000 3
 9.653590 6.200000 0.000000 3
 9.653590 6.000000 0.000000 3
 9.653590 5.800000 0.000000 3
 9.653590 5.600000 0.000000 3
 9.653590 5.400000 0.000000 3
 9.653590 5.200000 0.000000 3
 9.653590 5.000000 0.000000 3
 5.000000 9.653590 0.000000 3
 5.100000 9.480385 0.000000 3
 5.300000 9.480385 0.000000 3
 5.500000 9.480385 0.000000 3
 5.700000 9.480385 0.000000 3
 5.900000 9.480385 0.000000 3
 6.100000 9.480385 0.000000 3
 6.300000 9.480385 0.000000 3
 6.500000 9.480385 0.000000 3
 6.700000 9.480385 0.000000 3
 6.900000 9.480385 0.000000 3
 7.100000 9.480385 0.000000 3
 7.300002 9.480387 0.000000 3
 7.500010 9.480394 0.000000 3
 7.700032 9.480425 0.000000 3
 7.900091 9.480510 0.000000 3
 8.100234 9.480691 0.000000 3
 8.300544 9.480989 0.000000 3
 8.501161 9.481326 0.000000 3
 8.702361 9.481443 0.000000 3
 8.904716 9.481133 0.000000 3
 9.107935 9.482063 0.000000 3
 9.309589 9.485273 0.000000 3
 9.484353 9.499175 0.000000 3
 9.437746 9.309972 0.000000 3
 9.467803 9.095390 0.000000 3
 9.473907 8.897997 0.000000 3
 9.476659 8.699073 0.000000 3
 9.478454 8.499472 0.000000 3
 9.479591 8.299726 0.000000 3
 9.480122 8.099918 0.000000 3
 9.480307 7.900009 0.000000 3
 9.480357 7.700027 0.000000 3
 9.480372 7.500017 0.000000 3
 9.480380 7.300006 0.000000 3
 9.480384 7.100001 0.000000 3
 9.480385 6.900000 0.000000 3
 9.480385 6.700000 0.000000 3
 9.480385 6.500000 0.000000 3
 9.480385 6.300000 0.000000 3
 9.480385 6.100000 0.000000 3
 9.480385 5.900000 0.000000 3
 9.480385 5.700000 0.000000 3
 9.480385 5.500000 0.000000 3
 9.480385 5.300000 0.000000 3
 9.480385 5.100000 0.000000 3
 9.480385 4.900000 0.000000 3
 5.200000 9.307179 0.000000 3
 5.400000 9.307179 0.000000 3
 5.600000 9.307179 0.000000 3
 5.800000 9.307179 0.000000 3
 6.000000 9.307179 0.000000 3
 6.200000 9.307179 0.000000 3
 6.400000 9.307179 0.000000 3
 6.600000 9.307179 0.000000 3
 6.800000 9.307179 0.000000 3
 7.000001 9.307179 0.000000 3
 7.200006 9.307181 0.000000 3
 7.400021 9.307189 0.000000 3
 7.600062 9.307224 0.000000 3
 7.800154 9.307332 0.000000 3
 8.000341 9.307586 0.000000 3
 8.200694 9.308045 0.000000 3
 8.401299 9.308702 0.000000 3
 8.602229 9.309296 0.000000 3
 8.803866 9.308906 0.000000 3
 9.008959 9.305711 0.000000 3
 9.215408 9.310452 0.000000 3
 9.308238 9.165133 0.000000 3
 9.299490 8.995043 0.000000 3
 9.300645 8.797984 0.000000 3
 9.302873 8.598524 0.000000 3
 9.305339 8.398994 0.000000 3
 9.306558 8.199627 0.000000 3
 9.306973 8.000001 0.000000 3
 9.307079 7.800108 0.000000 3
 9.307117 7.600085 0.000000 3
 9.307146 7.400040 0.000000 3
 9.307167 7.200013 0.000000 3
 9.307177 7.000003 0.000000 3
 9.307179 6.800000 0.000000 3
 9.307179 6.600000 0.000000 3
 9.307179 6.400000 0.000000 3
 9.307179 6.200000 0.000000 3
 9.307179 6.000000 0.000000 3
 9.307179 5.800000 0.000000 3
 9.307179 5.600000 0.000000 3
 9.307179 5.400000 0.000000 3
 9.307179 5.200000 0.000000 3
 9.307179 5.000000 0.000000 3
 5.300000 9.133975 0.000000 3
 5.500000 9.133975 0.000000 3
 5.700000 9.133975 0.000000 3
 5.900000 9.133975 0.000000 3
 6.100000 9.133975 0.000000 3
 6.300000 9.133975 0.000000 3
 6.500000 9.133975 0.000000 3
 6.700000 9.133975 0.000000 3
 6.900002 9.133974 0.000000 3
 7.100012 9.133974 0.000000 3
 7.300042 9.133979 0.000000 3
 7.500120 9.134007 0.000000 3
 7.700280 9.134119 0.000000 3
 7.900562 9.134421 0.000000 3
 8.101011 9.135026 0.000000 3
 8.301710 9.135969 0.000000 3
 8.502620 9.137278 0.000000 3
 8.703229 9.138531 0.000000 3
 8.902556 9.137239 0.000000 3
 9.119493 9.113961 0.000000 3
 9.124815 8.898394 0.000000 3
 9.123980 8.697309 0.000000 3
 9.130386 8.496932 0.000000 3
 9.132958 8.298738 0.000000 3
 9.133646 8.099950 0.000000 3
 9.133716 7.900363 0.000000 3
 9.133734 7.700330 0.000000 3
 9.133811 7.500182 0.000000 3
 9.133895 7.300073 0.000000 3
 9.133947 7.100021 0.000000 3
 9.133968 6.900004 0.000000 3
 9.133974 6.700001 0.000000 3
 9.133975 6.500000 0.000000 3
 9.133975 6.300000 0.000000 3
 9.133975 6.100000 0.000000 3
 9.133975 5.900000 0.000000 3
 9.133975 5.700000 0.000000 3
 9.133975 5.500000 0.000000 3
 9.133975 5.300000 0.000000 3
 9.133975 5.100000 0.000000 3
 5.100000 9.133975 0.000000 3
 5.200000 8.960770 0.000000 3
 5.400000 8.960770 0.000000 3
 5.600000 8.960770 0.000000 3
 5.800000 8.960770 0.000000 3
 6.000000 8.960770 0.000000 3
 6.200000 8.960770 0.000000 3
 6.400000 8.960770 0.000000 3
 6.600000 8.960770 0.000000 3
 6.800004 8.960769 0.000000 3
 7.000021 8.960766 0.000000 3
 7.200076 8.960763 0.000000 3
 7.400211 8.960773 0.000000 3
 7.600489 8.960849 0.000000 3
 7.800964 8.961123 0.000000 3
 8.001632 8.961826 0.000000 3
 8.202454 8.963049 0.000000 3
 8.403683 8.964512 0.000000 3
 8.604980 8.967175 0.000000 3
 8.804062 8.971238 0.000000 3
 8.975871 8.984391 0.000000 3
 8.927944 8.800052 0.000000 3
 8.955792 8.590317 0.000000 3
 8.960268 8.396417 0.000000 3
 8.960816 8.199830 0.000000 3
 8.960321 8.001071 0.000000 3
 8.960053 7.801050 0.000000 3
 8.960171 7.600637 0.000000 3
 8.960424 7.400289 0.000000 3
 8.960624 7.200102 0.000000 3
 8.960724 7.000029 0.000000 3
 8.960760 6.800006 0.000000 3
 8.960768 6.600001 0.000000 3
 8.960770 6.400000 0.000000 3
 8.960770 6.200000 0.000000 3
 8.960770 6.000000 0.000000 3
 8.960770 5.800000 0.000000 3
 8.960770 5.600000 0.000000 3
 8.960770 5.400000 0.000000 3
 8.960770 5.200000 0.000000 3
 8.960770 5.000000 0.000000 3
 5.300000 8.787564 0.000000 3
 5.500000 8.787564 0.000000 3
 5.700000 8.787564 0.000000 3
 5.900000 8.787564 0.000000 3
 6.100000 8.787564 0.000000 3
 6.300000 8.787564 0.000000 3
 6.500001 8.787563 0.000000 3
 6.700006 8.787560 0.000000 3
 6.900033 8.787551 0.000000 3
 7.100119 8.787532 0.000000 3
 7.300333 8.787510 0.000000 3
 7.500772 8.787518 0.000000 3
 7.701538 8.787665 0.000000 3
 7.902682 8.788234 0.000000 3
 8.103920 8.789767 0.000000 3
 8.304799 8.791993 0.000000 3
 8.507434 8.792245 0.000000 3
 8.710189 8.799296 0.000000 3
 8.800416 8.657840 0.000000 3
 8.791305 8.492050 0.000000 3
 8.790014 8.299849 0.000000 3
 8.787310 8.102899 0.000000 3
 8.785805 7.902880 0.000000 3
 8.785787 7.701822 0.000000 3
 8.786403 7.500889 0.000000 3
 8.787004 7.300355 0.000000 3
 8.787356 7.100121 0.000000 3
 8.787506 6.900036 0.000000 3
 8.787553 6.700009 0.000000 3
 8.787562 6.500002 0.000000 3
 8.787564 6.300000 0.000000 3
 8.787564 6.100000 0.000000 3
 8.787564 5.900000 0.000000 3
 8.787564 5.700000 0.000000 3
 8.787564 5.500000 0.000000 3
 8.787564 5.300000 0.000000 3
 8.787564 5.100000 0.000000 3
 5.400000 8.614359 0.000000 3
 5.600000 8.614359 0.000000 3
 5.800000 8.614359 0.000000 3
 6.000000 8.614359 0.000000 3
 6.200000 8.614359 0.000000 3
 6.400001 8.614357 0.000000 3
 6.600008 8.614349 0.000000 3
 6.800041 8.614325 0.000000 3
 7.000158 8.614272 0.000000 3
 7.200464 8.614189 0.000000 3
 7.401100 8.614105 0.000000 3
 7.602202 8.614091 0.000000 3
 7.803920 8.614282 0.000000 3
 8.006411 8.615168 0.000000 3
 8.208127 8.619066 0.000000 3
 8.405689 8.624035 0.000000 3
 8.617222 8.606673 0.000000 3
 8.624592 8.400598 0.000000 3
 8.616014 8.207366 0.000000 3
 8.610533 8.007153 0.000000 3
 8.609851 7.804448 0.000000 3
 8.611132 7.602213 0.000000 3
 8.612662 7.400936 0.000000 3
 8.613657 7.200366 0.000000 3
 8.614130 7.000137 0.000000 3
 8.614302 6.800049 0.000000 3
 8.614348 6.600015 0.000000 3
 8.614358 6.400003 0.000000 3
 8.614359 6.200000 0.000000 3
 8.614359 6.000000 0.000000 3
 8.614359 5.800000 0.000000 3
 8.614359 5.600000 0.000000 3
 8.614359 5.400000 0.000000 3
 8.614359 5.200000 0.000000 3
 5.200000 8.614359 0.000000 3
 8.614359 5.000000 0.000000 3
 5.300000 8.441154 0.000000 3
 5.500000 8.441154 0.000000 3
 5.700000 8.441154 0.000000 3
 5.900000 8.441154 0.000000 3
 6.100000 8.441154 0.000000 3
 6.300001 8.441152 0.000000 3
 6.500006 8.441138 0.000000 3
 6.700037 8.441092 0.000000 3
 6.900167 8.440974 0.000000 3
 7.100551 8.440766 0.000000 3
 7.301406 8.440505 0.000000 3
 7.502907 8.440312 0.000000 3
 7.705102 8.440290 0.000000 3
 7.908232 8.440257 0.000000 3
 8.114511 8.439873 0.000000 3
 8.316344 8.454264 0.000000 3
 8.482716 8.480515 0.000000 3
 8.451464 8.317411 0.000000 3
 8.432551 8.117146 0.000000 3
 8.430984 7.909530 0.000000 3
 8.433331 7.704561 0.000000 3
 8.436935 7.501875 0.000000 3
 8.439303 7.300807 0.000000 3
 8.440486 7.100379 0.000000 3
 8.440960 6.900178 0.000000 3
 8.441110 6.700073 0.000000 3
 8.441147 6.500024 0.000000 3
 8.441154 6.300005 0.000000 3
 8.441154 6.100001 0.000000 3
 8.441154 5.900000 0.000000 3
 8.441154 5.700000 0.000000 3
 8.441154 5.500000 0.000000 3
 8.441154 5.300000 0.000000 3
 8.441154 5.100000 0.000000 3
 8.441154 4.900000 0.000000 3
 5.400000 8.267949 0.000000 3
 5.600000 8.267949 0.000000 3
 5.800000 8.267949 0.000000 3
 6.000000 8.267950 0.000000 3
 6.200001 8.267948 0.000000 3
 6.400003 8.267935 0.000000 3
 6.600019 8.267870 0.000000 3
 6.800119 8.267676 0.000000 3
 7.000500 8.267258 0.000000 3
 7.201506 8.266623 0.000000 3
 7.403491 8.265994 0.000000 3
 7.606437 8.265835 0.000000 3
 7.809722 8.266250 0.000000 3
 8.012724 8.265565 0.000000 3
 8.238058 8.245457 0.000000 3
 8.248485 8.017168 0.000000 3
 8.250033 7.808044 0.000000 3
 8.259111 7.602485 0.000000 3
 8.264059 7.401207 0.000000 3
 8.266472 7.200780 0.000000 3
 8.267476 7.000492 0.000000 3
 8.267821 6.800259 0.000000 3
 8.267919 6.600107 0.000000 3
 8.267941 6.400033 0.000000 3
 8.267947 6.200007 0.000000 3
 8.267949 6.000001 0.000000 3
 8.267949 5.800000 0.000000 3
 8.267949 5.600000 0.000000 3
 8.267949 5.400000 0.000000 3
 8.267949 5.200000 0.000000 3
 8.267949 5.000000 0.000000 3
 5.500000 8.094744 0.000000 3
 5.700000 8.094745 0.000000 3
 5.900001 8.094746 0.000000 3
 6.100003 8.094748 0.000000 3
 6.300003 8.094746 0.000000 3
 6.499997 8.094692 0.000000 3
 6.700018 8.094465 0.000000 3
 6.900240 8.093843 0.000000 3
 7.101136 8.092621 0.000000 3
 7.303385 8.091028 0.000000 3
 7.507507 8.089787 0.000000 3
 7.712632 8.090658 0.000000 3
 7.916001 8.093883 0.000000 3
 8.092253 8.107602 0.000000 3
 8.047065 7.915984 0.000000 3
 8.079967 7.699140 0.000000 3
 8.088432 7.500603 0.000000 3
 8.092319 7.301176 0.000000 3
 8.093918 7.101106 0.000000 3
 8.094476 6.900727 0.000000 3
 8.094647 6.700355 0.000000 3
 8.094705 6.500129 0.000000 3
 8.094728 6.300033 0.000000 3
 8.094739 6.100005 0.000000 3
 8.094743 5.900000 0.000000 3
 8.094744 5.700000 0.000000 3
 8.094744 5.500000 0.000000 3
 8.094744 5.300000 0.000000 3
 8.094744 5.100000 0.000000 3
 5.300000 8.094744 0.000000 3
 8.094744 4.900000 0.000000 3
 5.400000 7.921539 0.000000 3
 5.600000 7.921539 0.000000 3
 5.800000 7.921542 0.000000 3
 6.000003 7.921551 0.000000 3
 6.200006 7.921570 0.000000 3
 6.399990 7.921570 0.000000 3
 6.599923 7.921422 0.000000 3
 6.799852 7.920802 0.000000 3
 7.000161 7.919147 0.000000 3
 7.201972 7.915965 0.000000 3
 7.406426 7.912672 0.000000 3
 7.615009 7.909873 0.000000 3
 7.823510 7.916173 0.000000 3
 7.919465 7.769210 0.000000 3
 7.914666 7.598018 0.000000 3
 7.919014 7.401294 0.000000 3
 7.920671 7.202161 0.000000 3
 7.921124 7.001723 0.000000 3
 7.921262 6.800952 0.000000 3
 7.921363 6.600379 0.000000 3
 7.921448 6.400101 0.000000 3
 7.921503 6.200012 0.000000 3
 7.921527 5.999997 0.000000 3
 7.921536 5.799999 0.000000 3
 7.921538 5.600000 0.000000 3
 7.921539 5.400000 0.000000 3
 7.921539 5.200000 0.000000 3
 7.921539 5.000000 0.000000 3
 5.500000 7.748334 0.000000 3
 5.699999 7.748337 0.000000 3
 5.900002 7.748352 0.000000 3
 6.100009 7.748398 0.000000 3
 6.300004 7.748482 0.000000 3
 6.499908 7.748530 0.000000 3
 6.699587 7.748238 0.000000 3
 6.899025 7.746879 0.000000 3
 7.098901 7.743095 0.000000 3
 7.302651 7.734631 0.000000 3
 7.509539 7.731553 0.000000 3
 7.732167 7.715353 0.000000 3
 7.748335 7.501046 0.000000 3
 7.748656 7.303959 0.000000 3
 7.747915 7.103678 0.000000 3
 7.747567 6.902187 0.000000 3
 7.747691 6.700889 0.000000 3
 7.747958 6.500210 0.000000 3
 7.748168 6.299989 0.000000 3
 7.748273 6.099967 0.000000 3
 7.748313 5.899987 0.000000 3
 7.748327 5.699998 0.000000 3
 7.748332 5.500000 0.000000 3
 7.748333 5.300000 0.000000 3
 7.748334 5.100000 0.000000 3
 5.300000 7.748334 0.000000 3
 5.400000 7.575129 0.000000 3
 5.599999 7.575131 0.000000 3
 5.800000 7.575148 0.000000 3
 6.000010 7.575214 0.000000 3
 6.200029 7.575380 0.000000 3
 6.399985 7.575666 0.000000 3
 6.599641 7.575929 0.000000 3
 6.798581 7.575597 0.000000 3
 6.996397 7.573352 0.000000 3
 7.192815 7.566543 0.000000 3
 7.406449 7.535078 0.000000 3
 7.595268 7.578503 0.000000 3
 7.579806 7.407219 0.000000 3
 7.575139 7.207515 0.000000 3
 7.573007 7.004591 0.000000 3
 7.573136 6.801752 0.000000 3
 7.573880 6.600250 0.000000 3
 7.574561 6.399793 0.000000 3
 7.574910 6.199821 0.000000 3
 7.575043 5.999928 0.000000 3
 7.575090 5.799988 0.000000 3
 7.575112 5.600004 0.000000 3
 7.575123 5.400003 0.000000 3
 7.575128 5.200001 0.000000 3
 5.200000 7.575129 0.000000 3
 7.575129 5.000000 0.000000 3
 5.300002 7.401923 0.000000 3
 5.500004 7.401923 0.000000 3
 5.700010 7.401937 0.000000 3
 5.900026 7.402008 0.000000 3
 6.100066 7.402225 0.000000 3
 6.300113 7.402696 0.000000 3
 6.499981 7.403486 0.000000 3
 6.699100 7.404406 0.000000 3
 6.896491 7.404594 0.000000 3
 7.091061 7.402380 0.000000 3
 7.260177 7.408800 0.000000 3
 7.404015 7.315458 0.000000 3
 7.395728 7.109600 0.000000 3
 7.396633 6.902971 0.000000 3
 7.398360 6.699879 0.000000 3
 7.400393 6.499015 0.000000 3
 7.401360 6.299318 0.000000 3
 7.401683 6.099736 0.000000 3
 7.401784 5.899960 0.000000 3
 7.401840 5.700023 0.000000 3
 7.401884 5.500021 0.000000 3
 7.401910 5.300008 0.000000 3
 7.401920 5.100001 0.000000 3
 5.400022 7.228714 0.000000 3
 5.600050 7.228718 0.000000 3
 5.800099 7.228773 0.000000 3
 6.000179 7.228998 0.000000 3
 6.200305 7.229566 0.000000 3
 6.400444 7.230638 0.000000 3
 6.600226 7.232457 0.000000 3
 6.798473 7.234999 0.000000 3
 6.993329 7.236845 0.000000 3
 7.204820 7.223364 0.000000 3
 7.218233 7.003456 0.000000 3
 7.218993 6.798610 0.000000 3
 7.225412 6.596582 0.000000 3
 7.227750 6.397942 0.000000 3
 7.228303 6.199261 0.000000 3
 7.228359 5.999932 0.000000 3
 7.228419 5.800118 0.000000 3
 7.228533 5.600099 0.000000 3
 7.228634 5.400047 0.000000 3
 7.228690 5.200013 0.000000 3
 5.200007 7.228717 0.000000 3
 7.228707 4.999991 0.000000 3
 5.300053 7.055508 0.000000 3
 5.500133 7.055498 0.000000 3
 5.700271 7.055514 0.000000 3
 5.900481 7.055684 0.000000 3
 6.100739 7.056276 0.000000 3
 6.301001 7.057511 0.000000 3
 6.501451 7.059349 0.000000 3
 6.701508 7.063075 0.000000 3
 6.898578 7.069412 0.000000 3
 7.067957 7.086519 0.000000 3
 7.022577 6.899694 0.000000 3
 7.050794 6.688996 0.000000 3
 7.055077 6.494744 0.000000 3
 7.055428 6.298376 0.000000 3
 7.054894 6.100076 0.000000 3
 7.054683 5.900492 0.000000 3
 7.054866 5.700380 0.000000 3
 7.055157 5.500192 0.000000 3
 7.055366 5.300069 0.000000 3
 7.055458 5.099999 0.000000 3
 5.100009 7.055508 0.000000 3
 5.200088 6.882298 0.000000 3
 5.400254 6.882287 0.000000 3
 5.600543 6.882260 0.000000 3
 5.801002 6.882306 0.000000 3
 6.001642 6.882720 0.000000 3
 6.202217 6.884153 0.000000 3
 6.402333 6.886526 0.000000 3
 6.604114 6.887469 0.000000 3
 6.805897 6.896061 0.000000 3
 6.895675 6.755200 0.000000 3
 6.886317 6.589180 0.000000 3
 6.884709 6.397314 0.000000 3
 6.881883 6.201017 0.000000 3
 6.880410 6.001700 0.000000 3
 6.880466 5.801201 0.000000 3
 6.881126 5.600614 0.000000 3
 6.881736 5.400246 0.000000 3
 6.882077 5.200054 0.000000 3
 6.882175 4.999899 0.000000 3
 5.300387 6.709079 0.000000 3
 5.500879 6.709036 0.000000 3
 5.701659 6.708968 0.000000 3
 5.902831 6.709016 0.000000 3
 6.104554 6.709742 0.000000 3
 6.305386 6.713605 0.000000 3
 6.502120 6.718897 0.000000 3
 6.712865 6.702562 0.000000 3
 6.719636 6.496871 0.000000 3
 6.710800 6.304371 0.000000 3
 6.705265 6.105090 0.000000 3
 6.704589 5.903231 0.000000 3
 6.705859 5.701594 0.000000 3
 6.707357 5.500651 0.000000 3
 6.708319 5.300206 0.000000 3
 6.708727 5.099927 0.000000 3
 5.100086 6.709057 0.000000 3
 6.708698 4.899539 0.000000 3
 5.200480 6.535843 0.000000 3
 5.401215 6.535832 0.000000 3
 5.602376 6.535713 0.000000 3
 5.804008 6.535583 0.000000 3
 6.006344 6.535356 0.000000 3
 6.211658 6.534869 0.000000 3
 6.412555 6.549319 0.000000 3
 6.578311 6.575870 0.000000 3
 6.546807 6.413328 0.000000 3
 6.527711 6.214071 0.000000 3
 6.525961 6.007545 0.000000 3
 6.528104 5.803442 0.000000 3
 6.531502 5.601285 0.000000 3
 6.533750 5.400454 0.000000 3
 6.534873 5.200035 0.000000 3
 6.535142 4.999551 0.000000 3
 4.999966 6.535686 0.000000 3
 5.100480 6.362470 0.000000 3
 5.301454 6.362638 0.000000 3
 5.503009 6.362456 0.000000 3
 5.705275 6.362261 0.000000 3
 5.907762 6.362350 0.000000 3
 6.109875 6.361391 0.000000 3
 6.334133 6.341391 0.000000 3
 6.344007 6.114423 0.000000 3
 6.344969 5.906408 0.000000 3
 6.353383 5.701550 0.000000 3
 6.357897 5.500551 0.000000 3
 6.360236 5.300147 0.000000 3
 6.361205 5.099681 0.000000 3
 4.899611 6.361925 0.000000 3
 6.360919 4.898767 0.000000 3
 5.000427 6.188671 0.000000 3
 5.201601 6.189420 0.000000 3
 5.403275 6.189375 0.000000 3
 5.606243 6.188517 0.000000 3
 5.810252 6.188671 0.000000 3
 6.012845 6.191037 0.000000 3
 6.188544 6.204307 0.000000 3
 6.142501 6.014085 0.000000 3
 6.173831 5.798148 0.000000 3
 6.180956 5.599769 0.000000 3
 6.184464 5.400049 0.000000 3
 6.186517 5.199762 0.000000 3
 6.187013 4.999155 0.000000 3
 4.798958 6.187218 0.000000 3
 6.185367 4.797679 0.000000 3
 4.900598 6.013912 0.000000 3
 5.101937 6.015899 0.000000 3
 5.303375 6.016687 0.000000 3
 5.505675 6.015846 0.000000 3
 5.711651 6.011814 0.000000 3
 5.919065 6.015594 0.000000 3
 6.013193 5.868949 0.000000 3
 6.005376 5.697934 0.000000 3
 6.007524 5.499849 0.000000 3
 6.010387 5.299516 0.000000 3
 6.012669 5.099244 0.000000 3
 6.011981 4.898929 0.000000 3
 6.007491 4.697156 0.000000 3
 5.002956 5.841684 0.000000 3
 5.204089 5.843764 0.000000 3
 5.405334 5.844797 0.000000 3
 5.605592 5.842818 0.000000 3
 5.823790 5.818390 0.000000 3
 5.830368 5.601433 0.000000 3
 5.830495 5.399161 0.000000 3
 5.837409 5.197886 0.000000 3
 5.839147 4.999345 0.000000 3
 5.835851 4.800506 0.000000 3
 4.801918 5.837666 0.000000 3
 4.905374 5.667368 0.000000 3
 5.105484 5.669804 0.000000 3
 5.307206 5.672304 0.000000 3
 5.507359 5.675951 0.000000 3
 5.680120 5.688616 0.000000 3
 5.632827 5.502974 0.000000 3
 5.661818 5.291677 0.000000 3
 5.666818 5.097191 0.000000 3
 5.666323 4.901888 0.000000 3
 5.659755 4.707521 0.000000 3
 5.006308 5.496612 0.000000 3
 5.208943 5.495486 0.000000 3
 5.413343 5.502380 0.000000 3
 5.504851 5.359362 0.000000 3
 5.496418 5.191912 0.000000 3
 5.497002 4.999701 0.000000 3
 5.495658 4.807553 0.000000 3
 4.809714 5.495664 0.000000 3
 4.906869 5.326146 0.000000 3
 5.103649 5.323884 0.000000 3
 5.319131 5.306384 0.000000 3
 5.327497 5.096061 0.000000 3
 5.327126 4.903711 0.000000 3
 4.693971 5.318064 0.000000 3
 5.317714 4.693514 0.000000 3
 4.827077 5.178535 0.000000 3
 4.676157 5.103004 0.000000 3
 5.002749 5.143690 0.000000 3
 5.179523 5.174121 0.000000 3
 5.145241 5.000305 0.000000 3
 5.178312 4.826221 0.000000 3
 4.857446 5.002383 0.000000 3
 5.000582 4.858382 0.000000 3
 5.001305 5.000966 0.000000 3
 1 2 3 
 4 5 2 
 6 7 5 
 8 9 7 
 10 11 9 
 12 13 11 
 14 15 13 
 16 17 15 
 18 19 17 
 20 21 19 
 22 23 21 
 24 25 23 
 26 27 25 
 28 29 27 
 30 31 29 
 32 33 31 
 34 35 33 
 36 37 35 
 38 39 37 
 40 41 39 
 42 43 41 
 44 45 43 
 46 47 45 
 47 48 49 
 48 50 49 
 51 52 50 
 52 53 54 
 54 55 56 
 56 57 58 
 58 59 60 
 60 61 62 
 62 63 64 
 64 65 66 
 66 67 68 
 68 69 70 
 70 71 72 
 72 73 74 
 74 75 76 
 76 77 78 
 78 79 80 
 80 81 82 
 82 83 84 
 84 85 86 
 86 87 88 
 88 89 90 
 90 91 92 
 92 93 94 
 94 95 96 
 96 97 98 
 98 99 100 
 101 1 3 
 1 4 2 
 4 6 5 
 6 8 7 
 8 10 9 
 10 12 11 
 12 14 13 
 14 16 15 
 16 18 17 
 18 20 19 
 20 22 21 
 22 24 23 
 24 26 25 
 26 28 27 
 28 30 29 
 30 32 31 
 32 34 33 
 34 36 35 
 36 38 37 
 38 40 39 
 40 42 41 
 42 44 43 
 44 46 45 
 47 46 48 
 48 51 50 
 53 52 51 
 53 55 54 
 55 57 56 
 57 59 58 
 59 61 60 
 61 63 62 
 63 65 64 
 65 67 66 
 67 69 68 
 69 71 70 
 71 73 72 
 73 75 74 
 75 77 76 
 77 79 78 
 79 81 80 
 81 83 82 
 83 85 84 
 85 87 86 
 87 89 88 
 89 91 90 
 91 93 92 
 93 95 94 
 95 97 96 
 97 99 98 
 1 101 102 
 4 1 103 
 6 4 104 
 8 6 105 
 10 8 106 
 12 10 107 
 14 12 108 
 16 14 109 
 18 16 110 
 20 18 111 
 22 20 112 
 24 22 113 
 26 24 114 
 28 26 115 
 30 28 116 
 32 30 117 
 34 32 118 
 36 34 119 
 38 36 120 
 40 38 121 
 42 40 122 
 44 42 123 
 44 124 46 
 51 48 46 
 53 51 124 
 53 125 55 
 55 126 57 
 57 127 59 
 59 128 61 
 61 129 63 
 130 65 63 
 65 131 67 
 67 132 69 
 69 133 71 
 71 134 73 
 73 135 75 
 75 136 77 
 77 137 79 
 79 138 81 
 81 139 83 
 83 140 85 
 85 141 87 
 87 142 89 
 89 143 91 
 91 144 93 
 93 145 95 
 95 146 97 
 97 147 99 
 148 102 101 
 103 1 102 
 104 4 103 
 105 6 104 
 106 8 105 
 107 10 106 
 108 12 107 
 109 14 108 
 110 16 109 
 111 18 110 
 112 20 111 
 113 22 112 
 114 24 113 
 115 26 114 
 116 28 115 
 117 30 116 
 118 32 117 
 119 34 118 
 120 36 119 
 121 38 120 
 122 40 121 
 123 42 122 
 44 123 124 
 124 51 46 
 53 124 125 
 125 126 55 
 126 127 57 
 127 128 59 
 128 129 61 
 129 130 63 
 131 65 130 
 131 132 67 
 132 133 69 
 133 134 71 
 134 135 73 
 135 136 75 
 136 137 77 
 137 138 79 
 138 139 81 
 139 140 83 
 140 141 85 
 141 142 87 
 142 143 89 
 143 144 91 
 144 145 93 
 145 146 95 
 146 147 97 
 102 148 149 
 103 102 150 
 104 103 151 
 152 105 104 
 106 105 153 
 107 106 154 
 108 107 155 
 109 108 156 
 110 109 157 
 111 110 158 
 112 111 159 
 113 112 160 
 114 113 161 
 115 114 162 
 115 163 116 
 117 116 164 
 118 117 165 
 119 118 166 
 120 119 167 
 121 120 168 
 169 122 121 
 123 122 170 
 171 124 123 
 125 124 171 
 125 172 126 
 126 173 127 
 127 174 128 
 128 175 129 
 129 176 130 
 130 177 131 
 131 178 132 
 179 133 132 
 133 180 134 
 134 181 135 
 135 182 136 
 136 183 137 
 137 184 138 
 138 185 139 
 139 186 140 
 140 187 141 
 141 188 142 
 142 189 143 
 143 190 144 
 144 191 145 
 145 192 146 
 146 193 147 
 102 149 150 
 151 103 150 
 151 152 104 
 153 105 152 
 154 106 153 
 155 107 154 
 156 108 155 
 157 109 156 
 158 110 157 
 159 111 158 
 160 112 159 
 161 113 160 
 162 114 161 
 115 162 163 
 164 116 163 
 165 117 164 
 166 118 165 
 167 119 166 
 168 120 167 
 168 169 121 
 170 122 169 
 171 123 170 
 125 171 172 
 172 173 126 
 173 174 127 
 174 175 128 
 175 176 129 
 176 177 130 
 177 178 131 
 178 179 132 
 180 133 179 
 180 181 134 
 181 182 135 
 182 183 136 
 183 184 137 
 184 185 138 
 185 186 139 
 186 187 140 
 187 188 141 
 188 189 142 
 189 190 143 
 190 191 144 
 191 192 145 
 192 193 146 
 193 194 147 
 150 149 195 
 151 150 196 
 197 152 151 
 153 152 198 
 154 153 199 
 155 154 200 
 156 155 201 
 157 156 202 
 158 157 203 
 159 158 204 
 160 159 205 
 161 160 206 
 162 161 207 
 163 162 208 
 164 163 209 
 165 164 210 
 166 165 211 
 167 166 212 
 168 167 213 
 169 168 214 
 215 170 169 
 172 171 170 
 172 216 173 
 173 217 174 
 218 175 174 
 175 219 176 
 176 220 177 
 177 221 178 
 222 179 178 
 179 223 180 
 180 224 181 
 225 182 181 
 182 226 183 
 227 184 183 
 184 228 185 
 185 229 186 
 186 230 187 
 187 231 188 
 188 232 189 
 233 190 189 
 190 234 191 
 191 235 192 
 192 236 193 
 193 237 194 
 150 195 196 
 196 197 151 
 198 152 197 
 199 153 198 
 200 154 199 
 201 155 200 
 202 156 201 
 203 157 202 
 204 158 203 
 205 159 204 
 206 160 205 
 207 161 206 
 208 162 207 
 209 163 208 
 210 164 209 
 211 165 210 
 212 166 211 
 213 167 212 
 214 168 213 
 214 215 169 
 172 170 215 
 216 217 173 
 172 215 216 
 217 218 174 
 219 175 218 
 219 220 176 
 220 221 177 
 221 222 178 
 223 179 222 
 223 224 180 
 224 225 181 
 226 182 225 
 226 227 183 
 228 184 227 
 228 229 185 
 229 230 186 
 230 231 187 
 231 232 188 
 232 233 189 
 234 190 233 
 234 235 191 
 235 236 192 
 236 237 193 
 238 196 195 
 239 197 196 
 240 198 197 
 199 198 241 
 200 199 242 
 201 200 243 
 202 201 244 
 202 245 203 
 204 203 246 
 205 204 247 
 206 205 248 
 207 206 249 
 208 207 250 
 209 208 251 
 210 209 252 
 211 210 253 
 211 254 212 
 212 255 213 
 214 213 256 
 215 214 257 
 257 217 216 
 215 257 216 
 217 258 218 
 259 219 218 
 260 220 219 
 220 261 221 
 221 262 222 
 222 263 223 
 223 264 224 
 265 225 224 
 225 266 226 
 226 267 227 
 268 228 227 
 269 229 228 
 229 270 230 
 271 231 230 
 231 272 232 
 232 273 233 
 233 274 234 
 234 275 235 
 235 276 236 
 236 277 237 
 238 195 278 
 239 196 238 
 239 240 197 
 241 198 240 
 242 199 241 
 243 200 242 
 244 201 243 
 202 244 245 
 246 203 245 
 247 204 246 
 248 205 247 
 249 206 248 
 250 207 249 
 251 208 250 
 252 209 251 
 253 210 252 
 211 253 254 
 212 254 255 
 256 213 255 
 257 214 256 
 258 217 257 
 258 259 218 
 260 219 259 
 261 220 260 
 261 262 221 
 262 263 222 
 263 264 223 
 264 265 224 
 266 225 265 
 266 267 226 
 267 268 227 
 269 228 268 
 270 229 269 
 270 271 230 
 272 231 271 
 272 273 232 
 273 274 233 
 274 275 234 
 275 276 235 
 276 277 236 
 278 279 238 
 238 280 239 
 240 239 281 
 241 240 282 
 241 283 242 
 242 284 243 
 244 243 285 
 245 244 286 
 246 245 287 
 247 246 288 
 248 247 289 
 290 249 248 
 291 250 249 
 251 250 292 
 252 251 293 
 252 294 253 
 253 295 254 
 254 296 255 
 256 255 297 
 257 256 298 
 257 298 258 
 258 299 259 
 300 260 259 
 261 260 301 
 302 262 261 
 262 303 263 
 263 304 264 
 264 305 265 
 266 265 306 
 266 307 267 
 308 268 267 
 268 309 269 
 269 310 270 
 270 311 271 
 312 272 271 
 313 273 272 
 273 314 274 
 315 275 274 
 276 275 316 
 277 276 317 
 279 280 238 
 280 281 239 
 282 240 281 