TITLE      =  "2D FE Unstructured grid data" 
VARIABLES = "X", "Y", "U", "Dom" 
ZONE T="P1", F=FEPOINT, N= 775 E= 1440  ET=TRIANGLE 
 0.000000 5.200000 5.200000 2
 0.000000 5.000000 5.000000 2
 0.173205 5.100000 0.000000 2
 0.173205 5.300000 0.000000 2
 0.000000 5.400000 5.400000 2
 0.173205 5.500000 0.000000 2
 0.000000 5.600000 5.600000 2
 0.173205 5.700000 0.000000 2
 0.000000 5.800000 5.800000 2
 0.173205 5.900000 0.000000 2
 0.000000 6.000000 6.000000 2
 0.173205 6.100000 0.000000 2
 0.000000 6.200000 6.200000 2
 0.173205 6.300000 0.000000 2
 0.000000 6.400000 6.400000 2
 0.173205 6.500000 0.000000 2
 0.000000 6.600000 6.600000 2
 0.173205 6.700000 0.000000 2
 0.000000 6.800000 6.800000 2
 0.173205 6.900000 0.000000 2
 0.000000 7.000000 7.000000 2
 0.173205 7.100000 0.000000 2
 0.000000 7.200000 7.200000 2
 0.173205 7.300000 0.000000 2
 0.000000 7.400000 7.400000 2
 0.173205 7.500000 0.000000 2
 0.000000 7.600000 7.600000 2
 0.173205 7.699999 0.000000 2
 0.000000 7.800000 7.800000 2
 0.173210 7.899996 0.000000 2
 0.000000 8.000000 8.000000 2
 0.173231 8.100002 0.000000 2
 0.000000 8.200000 8.200000 2
 0.173282 8.300057 0.000000 2
 0.000000 8.400000 8.400000 2
 0.173355 8.500252 0.000000 2
 0.000000 8.600000 8.600000 2
 0.173396 8.700693 0.000000 2
 0.000000 8.800000 8.800000 2
 0.173305 8.901406 0.000000 2
 0.000000 9.000000 9.000000 2
 0.173112 9.102262 0.000000 2
 0.000000 9.200000 9.200000 2
 0.173339 9.303297 0.000000 2
 0.000000 9.400000 9.400000 2
 0.175066 9.506494 0.000000 2
 0.000000 9.600000 9.600000 2
 0.164370 9.702746 0.000000 2
 0.000000 9.800000 9.800000 2
 0.087359 9.912414 0.000000 2
 0.000000 10.000000 10.000000 2
 0.200000 10.000000 10.200000 2
 0.295277 9.833226 0.000000 2
 0.400000 10.000000 10.400000 2
 0.491419 9.819784 0.000000 2
 0.600000 10.000000 10.600000 2
 0.696277 9.819970 0.000000 2
 0.800000 10.000000 10.800000 2
 0.898880 9.822006 0.000000 2
 1.000000 10.000000 11.000000 2
 1.099898 9.824569 0.000000 2
 1.200000 10.000000 11.200000 2
 1.300002 9.825985 0.000000 2
 1.400000 10.000000 11.400000 2
 1.499953 9.826576 0.000000 2
 1.600000 10.000000 11.600000 2
 1.699943 9.826763 0.000000 2
 1.800000 10.000000 11.800000 2
 1.899964 9.826800 0.000000 2
 2.000000 10.000000 12.000000 2
 2.099984 9.826799 0.000000 2
 2.200000 10.000000 12.200000 2
 2.299995 9.826796 0.000000 2
 2.400000 10.000000 12.400000 2
 2.499999 9.826795 0.000000 2
 2.600000 10.000000 12.600000 2
 2.700000 9.826795 0.000000 2
 2.800000 10.000000 12.800000 2
 2.900000 9.826795 0.000000 2
 3.000000 10.000000 13.000000 2
 3.100000 9.826795 0.000000 2
 3.200000 10.000000 13.200000 2
 3.300000 9.826795 0.000000 2
 3.400000 10.000000 13.400000 2
 3.500000 9.826795 0.000000 2
 3.600000 10.000000 13.600000 2
 3.700000 9.826795 0.000000 2
 3.800000 10.000000 13.800000 2
 3.900000 9.826795 0.000000 2
 4.000000 10.000000 14.000000 2
 4.100000 9.826795 0.000000 2
 4.200000 10.000000 14.200000 2
 4.300000 9.826795 0.000000 2
 4.400000 10.000000 14.400000 2
 4.500000 9.826795 0.000000 2
 4.600000 10.000000 14.600000 2
 4.700000 9.826795 0.000000 2
 4.800000 10.000000 14.800000 2
 4.900000 9.826795 0.000000 2
 5.000000 10.000000 15.000000 2
 5.200000 10.000000 15.200000 2
 5.100000 9.826795 0.000000 2
 0.149413 9.849668 0.000000 2
 0.346410 5.200000 0.000000 2
 0.346410 5.400000 0.000000 2
 0.346410 5.600000 0.000000 2
 0.346410 5.800000 0.000000 2
 0.346410 6.000000 0.000000 2
 0.346410 6.200000 0.000000 2
 0.346410 6.400000 0.000000 2
 0.346410 6.600000 0.000000 2
 0.346410 6.800000 0.000000 2
 0.346410 7.000000 0.000000 2
 0.346410 7.200000 0.000000 2
 0.346410 7.400000 0.000000 2
 0.346408 7.599998 0.000000 2
 0.346411 7.799990 0.000000 2
 0.346439 7.999973 0.000000 2
 0.346539 8.199990 0.000000 2
 0.346761 8.400186 0.000000 2
 0.347051 8.600819 0.000000 2
 0.347170 8.802126 0.000000 2
 0.346724 9.003945 0.000000 2
 0.345804 9.205498 0.000000 2
 0.346365 9.405966 0.000000 2
 0.366420 9.627176 0.000000 2
 0.590643 9.638189 0.000000 2
 0.797026 9.639455 0.000000 2
 1.000504 9.647519 0.000000 2
 1.200404 9.651418 0.000000 2
 1.400005 9.653032 0.000000 2
 1.599845 9.653549 0.000000 2
 1.799859 9.653640 0.000000 2
 1.999921 9.653622 0.000000 2
 2.199967 9.653599 0.000000 2
 2.399989 9.653590 0.000000 2
 2.599997 9.653589 0.000000 2
 2.799999 9.653589 0.000000 2
 3.000000 9.653590 0.000000 2
 3.200000 9.653590 0.000000 2
 3.400000 9.653590 0.000000 2
 3.600000 9.653590 0.000000 2
 3.800000 9.653590 0.000000 2
 4.000000 9.653590 0.000000 2
 4.200000 9.653590 0.000000 2
 4.400000 9.653590 0.000000 2
 4.600000 9.653590 0.000000 2
 4.800000 9.653590 0.000000 2
 5.000000 9.653590 0.000000 2
 0.346410 5.000000 0.000000 2
 0.519615 5.100000 0.000000 2
 0.519615 5.300000 0.000000 2
 0.519615 5.500000 0.000000 2
 0.519615 5.700000 0.000000 2
 0.519615 5.900000 0.000000 2
 0.519615 6.100000 0.000000 2
 0.519615 6.300000 0.000000 2
 0.519615 6.500000 0.000000 2
 0.519615 6.700000 0.000000 2
 0.519615 6.900000 0.000000 2
 0.519615 7.100000 0.000000 2
 0.519615 7.300002 0.000000 2
 0.519613 7.500002 0.000000 2
 0.519607 7.699993 0.000000 2
 0.519617 7.899950 0.000000 2
 0.519721 8.099868 0.000000 2
 0.520078 8.299863 0.000000 2
 0.520832 8.500332 0.000000 2
 0.521715 8.701867 0.000000 2
 0.522033 8.904896 0.000000 2
 0.520167 9.108484 0.000000 2
 0.516094 9.309842 0.000000 2
 0.502026 9.483924 0.000000 2
 0.691279 9.438541 0.000000 2
 0.905519 9.469888 0.000000 2
 1.102293 9.477044 0.000000 2
 1.300466 9.479819 0.000000 2
 1.499710 9.480616 0.000000 2
 1.699596 9.480661 0.000000 2
 1.899716 9.480534 0.000000 2
 2.099850 9.480433 0.000000 2
 2.299935 9.480390 0.000000 2
 2.499976 9.480380 0.000000 2
 2.699993 9.480382 0.000000 2
 2.899999 9.480384 0.000000 2
 3.100000 9.480385 0.000000 2
 3.300000 9.480385 0.000000 2
 3.500000 9.480385 0.000000 2
 3.700000 9.480385 0.000000 2
 3.900000 9.480385 0.000000 2
 4.100000 9.480385 0.000000 2
 4.300000 9.480385 0.000000 2
 4.500000 9.480385 0.000000 2
 4.700000 9.480385 0.000000 2
 4.900000 9.480385 0.000000 2
 5.100000 9.480385 0.000000 2
 0.692820 5.200000 0.000000 2
 0.692820 5.400000 0.000000 2
 0.692820 5.600000 0.000000 2
 0.692820 5.800000 0.000000 2
 0.692820 6.000000 0.000000 2
 0.692820 6.200000 0.000000 2
 0.692820 6.400000 0.000000 2
 0.692820 6.600000 0.000000 2
 0.692820 6.800000 0.000000 2
 0.692822 7.000001 0.000000 2
 0.692824 7.200005 0.000000 2
 0.692827 7.400013 0.000000 2
 0.692819 7.600022 0.000000 2
 0.692793 7.799987 0.000000 2
 0.692804 7.999825 0.000000 2
 0.693086 8.199495 0.000000 2
 0.694128 8.399289 0.000000 2
 0.696392 8.600256 0.000000 2
 0.698498 8.803503 0.000000 2
 0.699922 9.010504 0.000000 2
 0.692332 9.217192 0.000000 2
 0.837106 9.311172 0.000000 2
 1.006657 9.305138 0.000000 2
 1.201722 9.308072 0.000000 2
 1.399538 9.308581 0.000000 2
 1.599009 9.308180 0.000000 2
 1.799177 9.307693 0.000000 2
 1.999483 9.307365 0.000000 2
 2.199725 9.307206 0.000000 2
 2.399874 9.307160 0.000000 2
 2.599952 9.307162 0.000000 2
 2.799986 9.307173 0.000000 2
 2.999997 9.307178 0.000000 2
 3.200000 9.307179 0.000000 2
 3.400000 9.307179 0.000000 2
 3.600000 9.307179 0.000000 2
 3.800000 9.307179 0.000000 2
 4.000000 9.307179 0.000000 2
 4.200000 9.307179 0.000000 2
 4.400000 9.307179 0.000000 2
 4.600000 9.307179 0.000000 2
 4.800000 9.307179 0.000000 2
 5.000000 9.307179 0.000000 2
 0.692820 5.000000 0.000000 2
 5.200000 9.307179 0.000000 2
 0.866025 5.100000 0.000000 2
 0.866025 5.300000 0.000000 2
 0.866025 5.500000 0.000000 2
 0.866025 5.700000 0.000000 2
 0.866025 5.900000 0.000000 2
 0.866025 6.100000 0.000000 2
 0.866025 6.300000 0.000000 2
 0.866025 6.500000 0.000000 2
 0.866026 6.700000 0.000000 2
 0.866029 6.900002 0.000000 2
 0.866039 7.100008 0.000000 2
 0.866061 7.300032 0.000000 2
 0.866084 7.500082 0.000000 2
 0.866058 7.700128 0.000000 2
 0.865936 7.900033 0.000000 2
 0.865847 8.099525 0.000000 2
 0.866400 8.298420 0.000000 2
 0.868979 8.497291 0.000000 2
 0.875921 8.699565 0.000000 2
 0.877405 8.904689 0.000000 2
 0.891755 9.125154 0.000000 2
 1.103856 9.139504 0.000000 2
 1.299141 9.138507 0.000000 2
 1.497783 9.136682 0.000000 2
 1.697985 9.135341 0.000000 2
 1.898566 9.134526 0.000000 2
 2.099104 9.134078 0.000000 2
 2.299514 9.133916 0.000000 2
 2.499775 9.133906 0.000000 2
 2.699914 9.133938 0.000000 2
 2.899974 9.133962 0.000000 2
 3.099994 9.133972 0.000000 2
 3.299999 9.133974 0.000000 2
 3.500000 9.133975 0.000000 2
 3.700000 9.133975 0.000000 2
 3.900000 9.133975 0.000000 2
 4.100000 9.133975 0.000000 2
 4.300000 9.133975 0.000000 2
 4.500000 9.133975 0.000000 2
 4.700000 9.133975 0.000000 2
 4.900000 9.133975 0.000000 2
 5.100000 9.133975 0.000000 2
 1.039230 5.200000 0.000000 2
 1.039230 5.400000 0.000000 2
 1.039230 5.600000 0.000000 2
 1.039230 5.800000 0.000000 2
 1.039230 6.000000 0.000000 2
 1.039230 6.200000 0.000000 2
 1.039230 6.400000 0.000000 2
 1.039231 6.600001 0.000000 2
 1.039236 6.800003 0.000000 2
 1.039256 7.000013 0.000000 2
 1.039316 7.200050 0.000000 2
 1.039425 7.400152 0.000000 2
 1.039524 7.600350 0.000000 2
 1.039431 7.800554 0.000000 2
 1.038928 8.000355 0.000000 2
 1.038239 8.198991 0.000000 2
 1.038748 8.395752 0.000000 2
 1.043566 8.590389 0.000000 2
 1.072745 8.801568 0.000000 2
 1.028295 8.988511 0.000000 2
 1.197861 8.972159 0.000000 2
 1.395215 8.966660 0.000000 2
 1.595684 8.963572 0.000000 2
 1.796708 8.962122 0.000000 2
 1.997642 8.961090 0.000000 2
 2.198525 8.960625 0.000000 2
 2.399208 8.960560 0.000000 2
 2.599639 8.960635 0.000000 2
 2.799864 8.960711 0.000000 2
 2.999959 8.960751 0.000000 2
 3.199991 8.960765 0.000000 2
 3.399999 8.960769 0.000000 2
 3.600000 8.960770 0.000000 2
 3.800000 8.960770 0.000000 2
 4.000000 8.960770 0.000000 2
 4.200000 8.960770 0.000000 2
 4.400000 8.960770 0.000000 2
 4.600000 8.960770 0.000000 2
 4.800000 8.960770 0.000000 2
 5.000000 8.960770 0.000000 2
 1.039230 5.000000 0.000000 2
 5.200000 8.960770 0.000000 2
 1.212436 5.100000 0.000000 2
 1.212436 5.300000 0.000000 2
 1.212436 5.500000 0.000000 2
 1.212436 5.700000 0.000000 2
 1.212436 5.900000 0.000000 2
 1.212436 6.100000 0.000000 2
 1.212436 6.300000 0.000000 2
 1.212436 6.500001 0.000000 2
 1.212441 6.700006 0.000000 2
 1.212470 6.900021 0.000000 2
 1.212568 7.100065 0.000000 2
 1.212807 7.300199 0.000000 2
 1.213204 7.500542 0.000000 2
 1.213525 7.701184 0.000000 2
 1.213168 7.901902 0.000000 2
 1.211372 8.101635 0.000000 2
 1.208524 8.298485 0.000000 2
 1.207365 8.490920 0.000000 2
 1.198787 8.657331 0.000000 2
 1.289487 8.798874 0.000000 2
 1.491479 8.791008 0.000000 2
 1.693833 8.790569 0.000000 2
 1.894788 8.788484 0.000000 2
 2.096297 8.787249 0.000000 2
 2.297776 8.787024 0.000000 2
 2.498837 8.787168 0.000000 2
 2.699479 8.787353 0.000000 2
 2.899807 8.787477 0.000000 2
 3.099944 8.787536 0.000000 2
 3.299988 8.787558 0.000000 2
 3.499998 8.787563 0.000000 2
 3.700000 8.787564 0.000000 2
 3.900000 8.787564 0.000000 2
 4.100000 8.787564 0.000000 2
 4.300000 8.787564 0.000000 2
 4.500000 8.787564 0.000000 2
 4.700000 8.787564 0.000000 2
 4.900000 8.787564 0.000000 2
 5.100000 8.787564 0.000000 2
 5.300000 8.787564 0.000000 2
 1.385641 5.200000 0.000000 2
 1.385641 5.400000 0.000000 2
 1.385641 5.600000 0.000000 2
 1.385641 5.800000 0.000000 2
 1.385641 6.000000 0.000000 2
 1.385641 6.200000 0.000000 2
 1.385641 6.400003 0.000000 2
 1.385645 6.600013 0.000000 2
 1.385671 6.800036 0.000000 2
 1.385785 7.000087 0.000000 2
 1.386127 7.200213 0.000000 2
 1.386880 7.400575 0.000000 2
 1.388046 7.601508 0.000000 2
 1.388889 7.803306 0.000000 2
 1.387798 8.005581 0.000000 2
 1.382062 8.205519 0.000000 2
 1.373500 8.398758 0.000000 2
 1.381267 8.605203 0.000000 2
 1.592447 8.622175 0.000000 2
 1.789969 8.617206 0.000000 2
 1.991925 8.613585 0.000000 2
 2.194823 8.613128 0.000000 2
 2.396979 8.613378 0.000000 2
 2.598446 8.613739 0.000000 2
 2.799324 8.614036 0.000000 2
 2.999760 8.614221 0.000000 2
 3.199934 8.614312 0.000000 2
 3.399987 8.614347 0.000000 2
 3.599998 8.614357 0.000000 2
 3.800000 8.614359 0.000000 2
 4.000000 8.614359 0.000000 2
 4.200000 8.614359 0.000000 2
 4.400000 8.614359 0.000000 2
 4.600000 8.614359 0.000000 2
 4.800000 8.614359 0.000000 2
 5.000000 8.614359 0.000000 2
 5.200000 8.614359 0.000000 2
 1.558846 5.300000 0.000000 2
 1.558846 5.500000 0.000000 2
 1.558846 5.700000 0.000000 2
 1.558846 5.900000 0.000000 2
 1.558846 6.100001 0.000000 2
 1.558845 6.300006 0.000000 2
 1.558846 6.500023 0.000000 2
 1.558861 6.700066 0.000000 2
 1.558951 6.900141 0.000000 2
 1.559287 7.100255 0.000000 2
 1.560212 7.300487 0.000000 2
 1.562179 7.501207 0.000000 2
 1.565275 7.703406 0.000000 2
 1.567110 7.907842 0.000000 2
 1.565199 8.115053 0.000000 2
 1.546206 8.315174 0.000000 2
 1.515137 8.478414 0.000000 2
 1.681332 8.452022 0.000000 2
 1.883240 8.437768 0.000000 2
 2.089862 8.438546 0.000000 2
 2.293504 8.439113 0.000000 2
 2.496213 8.439630 0.000000 2
 2.698119 8.440176 0.000000 2
 2.899234 8.440637 0.000000 2
 3.099753 8.440932 0.000000 2
 3.299941 8.441079 0.000000 2
 3.499990 8.441135 0.000000 2
 3.699999 8.441151 0.000000 2
 3.900000 8.441154 0.000000 2
 4.100000 8.441154 0.000000 2
 4.300000 8.441154 0.000000 2
 4.500000 8.441154 0.000000 2
 4.700000 8.441154 0.000000 2
 4.900000 8.441154 0.000000 2
 5.100000 8.441154 0.000000 2
 5.300000 8.441154 0.000000 2
 1.732051 5.400000 0.000000 2
 1.732051 5.600000 0.000000 2
 1.732051 5.800000 0.000000 2
 1.732051 6.000001 0.000000 2
 1.732049 6.200009 0.000000 2
 1.732046 6.400037 0.000000 2
 1.732044 6.600110 0.000000 2
 1.732081 6.800243 0.000000 2
 1.732294 7.000411 0.000000 2
 1.733050 7.200540 0.000000 2
 1.735063 7.400663 0.000000 2
 1.739484 7.601478 0.000000 2
 1.748008 7.806480 0.000000 2
 1.749123 8.015097 0.000000 2
 1.759415 8.243134 0.000000 2
 1.984877 8.263465 0.000000 2
 2.188312 8.264641 0.000000 2
 2.392163 8.264791 0.000000 2
 2.595653 8.265425 0.000000 2
 2.798052 8.266356 0.000000 2
 2.999314 8.267144 0.000000 2
 3.199824 8.267626 0.000000 2
 3.399973 8.267846 0.000000 2
 3.600001 8.267923 0.000000 2
 3.800002 8.267944 0.000000 2
 4.000000 8.267949 0.000000 2
 4.200000 8.267949 0.000000 2
 4.400000 8.267949 0.000000 2
 4.600000 8.267949 0.000000 2
 4.800000 8.267949 0.000000 2
 5.000000 8.267949 0.000000 2
 5.200000 8.267949 0.000000 2
 1.732051 5.200000 0.000000 2
 5.400000 8.267949 0.000000 2
 1.905256 5.300000 0.000000 2
 1.905256 5.500000 0.000000 2
 1.905256 5.700000 0.000000 2
 1.905255 5.900002 0.000000 2
 1.905252 6.100012 0.000000 2
 1.905241 6.300050 0.000000 2
 1.905221 6.500155 0.000000 2
 1.905201 6.700376 0.000000 2
 1.905248 6.900702 0.000000 2
 1.905595 7.100961 0.000000 2
 1.906852 7.300796 0.000000 2
 1.910262 7.499844 0.000000 2
 1.918193 7.697887 0.000000 2
 1.950637 7.914224 0.000000 2
 1.905195 8.105431 0.000000 2
 2.081671 8.092043 0.000000 2
 2.285515 8.089336 0.000000 2
 2.491219 8.088972 0.000000 2
 2.695870 8.090572 0.000000 2
 2.898513 8.092359 0.000000 2
 3.099648 8.093670 0.000000 2
 3.299981 8.094345 0.000000 2
 3.500030 8.094620 0.000000 2
 3.700018 8.094711 0.000000 2
 3.900006 8.094737 0.000000 2
 4.100001 8.094743 0.000000 2
 4.300000 8.094744 0.000000 2
 4.500000 8.094744 0.000000 2
 4.700000 8.094744 0.000000 2
 4.900000 8.094744 0.000000 2
 5.100000 8.094744 0.000000 2
 5.300000 8.094744 0.000000 2
 2.078461 5.400000 0.000000 2
 2.078461 5.600000 0.000000 2
 2.078460 5.800002 0.000000 2
 2.078453 6.000012 0.000000 2
 2.078431 6.200055 0.000000 2
 2.078385 6.400184 0.000000 2
 2.078314 6.600483 0.000000 2
 2.078237 6.801019 0.000000 2
 2.078204 7.001676 0.000000 2
 2.078452 7.201922 0.000000 2
 2.079786 7.400774 0.000000 2
 2.083716 7.597122 0.000000 2
 2.078538 7.767920 0.000000 2
 2.174426 7.914770 0.000000 2
 2.383395 7.908900 0.000000 2
 2.592511 7.912008 0.000000 2
 2.797459 7.915435 0.000000 2
 2.999648 7.918645 0.000000 2
 3.200182 7.920352 0.000000 2
 3.400192 7.921098 0.000000 2
 3.600108 7.921392 0.000000 2
 3.800045 7.921496 0.000000 2
 4.000014 7.921528 0.000000 2
 4.200003 7.921536 0.000000 2
 4.400000 7.921538 0.000000 2
 4.600000 7.921539 0.000000 2
 4.800000 7.921539 0.000000 2
 5.000000 7.921539 0.000000 2
 5.200000 7.921539 0.000000 2
 2.078461 5.200000 0.000000 2
 5.400000 7.921539 0.000000 2
 2.251666 5.300000 0.000000 2
 2.251666 5.500000 0.000000 2
 2.251665 5.700000 0.000000 2
 2.251654 5.900009 0.000000 2
 2.251617 6.100050 0.000000 2
 2.251531 6.300183 0.000000 2
 2.251385 6.500513 0.000000 2
 2.251218 6.701183 0.000000 2
 2.251061 6.902292 0.000000 2
 2.250695 7.103502 0.000000 2
 2.250006 7.303535 0.000000 2
 2.250219 7.500392 0.000000 2
 2.266146 7.714409 0.000000 2
 2.489129 7.730742 0.000000 2
 2.696465 7.733715 0.000000 2
 2.900723 7.741913 0.000000 2
 3.101047 7.745561 0.000000 2
 3.300744 7.747126 0.000000 2
 3.500437 7.747838 0.000000 2
 3.700216 7.748157 0.000000 2
 3.900084 7.748278 0.000000 2
 4.100024 7.748317 0.000000 2
 4.300004 7.748328 0.000000 2
 4.500000 7.748332 0.000000 2
 4.700000 7.748333 0.000000 2
 4.900000 7.748334 0.000000 2
 5.100000 7.748334 0.000000 2
 5.300000 7.748334 0.000000 2
 2.251666 5.100000 0.000000 2
 2.424871 5.200000 0.000000 2
 2.424873 5.400000 0.000000 2
 2.424874 5.600000 0.000000 2
 2.424864 5.800005 0.000000 2
 2.424814 6.000040 0.000000 2
 2.424676 6.200160 0.000000 2
 2.424412 6.400469 0.000000 2
 2.424063 6.601118 0.000000 2
 2.423835 6.802324 0.000000 2
 2.423895 7.004465 0.000000 2
 2.422534 7.206843 0.000000 2
 2.418560 7.406425 0.000000 2
 2.403279 7.577728 0.000000 2
 2.592106 7.533823 0.000000 2
 2.806262 7.564362 0.000000 2
 3.003457 7.570261 0.000000 2
 3.202073 7.572492 0.000000 2
 3.401317 7.573784 0.000000 2
 3.600752 7.574581 0.000000 2
 3.800338 7.574939 0.000000 2
 4.000111 7.575061 0.000000 2
 4.200021 7.575100 0.000000 2
 4.399998 7.575116 0.000000 2
 4.599997 7.575124 0.000000 2
 4.799999 7.575128 0.000000 2
 5.000000 7.575129 0.000000 2
 5.200000 7.575129 0.000000 2
 2.598082 5.300001 0.000000 2
 2.598092 5.500003 0.000000 2
 2.598095 5.700013 0.000000 2
 2.598049 5.900046 0.000000 2
 2.597872 6.100151 0.000000 2
 2.597476 6.300423 0.000000 2
 2.596818 6.500985 0.000000 2
 2.596102 6.701903 0.000000 2
 2.596188 6.903456 0.000000 2
 2.598819 7.108148 0.000000 2
 2.593208 7.313585 0.000000 2
 2.737675 7.405842 0.000000 2
 2.907501 7.396818 0.000000 2
 3.104120 7.397239 0.000000 2
 3.303066 7.398692 0.000000 2
 3.502099 7.400577 0.000000 2
 3.701054 7.401469 0.000000 2
 3.900374 7.401756 0.000000 2
 4.100068 7.401834 0.000000 2
 4.299983 7.401870 0.000000 2
 4.499979 7.401898 0.000000 2
 4.699991 7.401915 0.000000 2
 4.899998 7.401922 0.000000 2
 5.100000 7.401924 0.000000 2
 2.598078 5.099999 0.000000 2
 5.300002 7.401923 0.000000 2
 2.771296 5.200000 0.000000 2
 2.771325 5.400011 0.000000 2
 2.771370 5.600039 0.000000 2
 2.771375 5.800104 0.000000 2
 2.771208 6.000234 0.000000 2
 2.770708 6.200493 0.000000 2
 2.769780 6.401011 0.000000 2
 2.768332 6.601799 0.000000 2
 2.766730 6.802329 0.000000 2
 2.767443 7.001482 0.000000 2
 2.789770 7.217824 0.000000 2
 3.004847 7.222243 0.000000 2
 3.205392 7.220417 0.000000 2
 3.405137 7.225986 0.000000 2
 3.602723 7.228052 0.000000 2
 3.800975 7.228528 0.000000 2
 4.000141 7.228550 0.000000 2
 4.199892 7.228564 0.000000 2
 4.399891 7.228621 0.000000 2
 4.599943 7.228674 0.000000 2
 4.799980 7.228704 0.000000 2
 4.999997 7.228715 0.000000 2
 5.200007 7.228717 0.000000 2
 2.944571 5.300014 0.000000 2
 2.944699 5.500071 0.000000 2
 2.944854 5.700213 0.000000 2
 2.944842 5.900488 0.000000 2
 2.944321 6.100876 0.000000 2
 2.943111 6.301359 0.000000 2
 2.941442 6.502273 0.000000 2
 2.938346 6.703360 0.000000 2
 2.933628 6.902309 0.000000 2
 2.919777 7.074007 0.000000 2
 3.103961 7.025118 0.000000 2
 3.312979 7.051863 0.000000 2
 3.506199 7.055682 0.000000 2
 3.702053 7.055967 0.000000 2
 3.900093 7.055463 0.000000 2
 4.099527 7.055203 0.000000 2
 4.299567 7.055236 0.000000 2
 4.499747 7.055355 0.000000 2
 4.699891 7.055447 0.000000 2
 4.899968 7.055492 0.000000 2
 5.100009 7.055508 0.000000 2
 2.944517 5.099982 0.000000 2
 3.117818 5.199984 0.000000 2
 3.118045 5.400070 0.000000 2
 3.118476 5.600294 0.000000 2
 3.118910 5.800822 0.000000 2
 3.118761 6.001706 0.000000 2
 3.117218 6.202582 0.000000 2
 3.114595 6.402964 0.000000 2
 3.113686 6.605107 0.000000 2
 3.105796 6.807573 0.000000 2
 3.246566 6.896933 0.000000 2
 3.411945 6.887214 0.000000 2
 3.603405 6.885714 0.000000 2
 3.799394 6.883211 0.000000 2
 3.998385 6.881881 0.000000 2
 4.198628 6.881684 0.000000 2
 4.399142 6.881866 0.000000 2
 4.599571 6.882074 0.000000 2
 4.799835 6.882210 0.000000 2
 4.999977 6.882277 0.000000 2
 5.200088 6.882298 0.000000 2
 3.291326 5.300003 0.000000 2
 3.292045 5.500215 0.000000 2
 3.293254 5.700898 0.000000 2
 3.294283 5.902485 0.000000 2
 3.293627 6.104989 0.000000 2
 3.288837 6.306361 0.000000 2
 3.282647 6.503179 0.000000 2
 3.298705 6.713931 0.000000 2
 3.504291 6.721057 0.000000 2
 3.696660 6.713190 0.000000 2
 3.895375 6.708621 0.000000 2
 4.096443 6.707893 0.000000 2
 4.297658 6.708089 0.000000 2
 4.498693 6.708449 0.000000 2
 4.699407 6.708754 0.000000 2
 4.899822 6.708954 0.000000 2
 5.100086 6.709057 0.000000 2
 3.291081 5.099869 0.000000 2
 3.464505 5.199877 0.000000 2
 3.465260 5.399986 0.000000 2
 3.467137 5.600390 0.000000 2
 3.470250 5.802162 0.000000 2
 3.472327 6.006245 0.000000 2
 3.471079 6.213562 0.000000 2
 3.453721 6.414768 0.000000 2
 3.425761 6.579841 0.000000 2
 3.588941 6.549791 0.000000 2
 3.787873 6.533646 0.000000 2
 3.992395 6.533657 0.000000 2
 4.194744 6.533955 0.000000 2
 4.396751 6.534371 0.000000 2
 4.598332 6.534884 0.000000 2
 4.799354 6.535357 0.000000 2
 4.999966 6.535686 0.000000 2
 3.638042 5.299843 0.000000 2
 3.639778 5.499630 0.000000 2
 3.644010 5.699929 0.000000 2
 3.652457 5.904323 0.000000 2
 3.653785 6.112446 0.000000 2
 3.664689 6.340184 0.000000 2
 3.888225 6.359203 0.000000 2
 4.090245 6.359823 0.000000 2
 4.293159 6.359688 0.000000 2
 4.496118 6.360181 0.000000 2
 4.698299 6.361084 0.000000 2
 4.899611 6.361925 0.000000 2
 3.637753 5.099737 0.000000 2
 3.810730 5.200062 0.000000 2
 3.811397 5.399538 0.000000 2
 3.814403 5.598020 0.000000 2
 3.822016 5.795403 0.000000 2
 3.854137 6.010942 0.000000 2
 3.809010 6.201818 0.000000 2
 3.984338 6.187819 0.000000 2
 4.187131 6.184612 0.000000 2
 4.392108 6.183928 0.000000 2
 4.596367 6.185392 0.000000 2
 4.798958 6.187218 0.000000 2
 3.811523 4.999689 0.000000 2
 3.983922 5.100821 0.000000 2
 3.982996 5.300550 0.000000 2
 3.983646 5.498712 0.000000 2
 3.987065 5.694353 0.000000 2
 3.981576 5.864599 0.000000 2
 4.076795 6.010706 0.000000 2
 4.284914 6.004316 0.000000 2
 4.493441 6.007114 0.000000 2
 4.698170 6.010512 0.000000 2
 4.900598 6.013912 0.000000 2
 4.155569 5.202445 0.000000 2
 4.153769 5.401451 0.000000 2
 4.153236 5.597424 0.000000 2
 4.168516 5.810633 0.000000 2
 4.390712 5.826420 0.000000 2
 4.597642 5.829285 0.000000 2
 4.801918 5.837666 0.000000 2
 4.158014 5.002370 0.000000 2
 4.329537 5.104638 0.000000 2
 4.326573 5.305268 0.000000 2
 4.321475 5.503583 0.000000 2
 4.305547 5.674067 0.000000 2
 4.494113 5.630286 0.000000 2
 4.707891 5.660985 0.000000 2
 4.905374 5.667368 0.000000 2
 4.503939 5.207926 0.000000 2
 4.496449 5.411569 0.000000 2
 4.640123 5.503543 0.000000 2
 4.809714 5.495664 0.000000 2
 4.502879 5.005909 0.000000 2
 4.676157 5.103004 0.000000 2
 4.693971 5.318064 0.000000 2
 4.673819 4.906794 0.000000 2
 4.857446 5.002383 0.000000 2
 1 2 3 
 4 5 1 
 6 7 5 
 8 9 7 
 10 11 9 
 12 13 11 
 14 15 13 
 16 17 15 
 18 19 17 
 20 21 19 
 22 23 21 
 24 25 23 
 26 27 25 
 28 29 27 
 30 31 29 
 32 33 31 
 34 35 33 
 36 37 35 
 38 39 37 
 40 41 39 
 42 43 41 
 44 45 43 
 46 47 45 
 48 49 47 
 49 50 51 
 50 52 51 
 52 53 54 
 54 55 56 
 56 57 58 
 58 59 60 
 60 61 62 
 62 63 64 
 64 65 66 
 66 67 68 
 68 69 70 
 70 71 72 
 72 73 74 
 74 75 76 
 76 77 78 
 78 79 80 
 80 81 82 
 82 83 84 
 84 85 86 
 86 87 88 
 88 89 90 
 90 91 92 
 92 93 94 
 94 95 96 
 96 97 98 
 98 99 100 
 101 100 102 
 3 4 1 
 4 6 5 
 6 8 7 
 8 10 9 
 10 12 11 
 12 14 13 
 14 16 15 
 16 18 17 
 18 20 19 
 20 22 21 
 22 24 23 
 24 26 25 
 26 28 27 
 28 30 29 
 30 32 31 
 32 34 33 
 34 36 35 
 36 38 37 
 38 40 39 
 40 42 41 
 42 44 43 
 44 46 45 
 46 48 47 
 103 49 48 
 50 49 103 
 52 50 103 
 53 55 54 
 52 103 53 
 55 57 56 
 57 59 58 
 59 61 60 
 61 63 62 
 63 65 64 
 65 67 66 
 67 69 68 
 69 71 70 
 71 73 72 
 73 75 74 
 75 77 76 
 77 79 78 
 79 81 80 
 81 83 82 
 83 85 84 
 85 87 86 
 87 89 88 
 89 91 90 
 91 93 92 
 93 95 94 
 95 97 96 
 97 99 98 
 99 102 100 
 4 3 104 
 6 4 105 
 8 6 106 
 10 8 107 
 12 10 108 
 14 12 109 
 16 14 110 
 18 16 111 
 20 18 112 
 22 20 113 
 24 22 114 
 26 24 115 
 28 26 116 
 30 28 117 
 32 30 118 
 34 32 119 
 36 34 120 
 38 36 121 
 40 38 122 
 42 40 123 
 44 42 124 
 46 44 125 
 48 46 126 
 48 53 103 
 126 55 53 
 55 127 57 
 57 128 59 
 59 129 61 
 61 130 63 
 63 131 65 
 132 67 65 
 67 133 69 
 69 134 71 
 71 135 73 
 73 136 75 
 75 137 77 
 77 138 79 
 79 139 81 
 81 140 83 
 83 141 85 
 85 142 87 
 87 143 89 
 89 144 91 
 91 145 93 
 93 146 95 
 95 147 97 
 97 148 99 
 99 149 102 
 104 3 150 
 105 4 104 
 106 6 105 
 107 8 106 
 108 10 107 
 109 12 108 
 110 14 109 
 111 16 110 
 112 18 111 
 113 20 112 
 114 22 113 
 115 24 114 
 116 26 115 
 117 28 116 
 118 30 117 
 119 32 118 
 120 34 119 
 121 36 120 
 122 38 121 
 123 40 122 
 124 42 123 
 125 44 124 
 126 46 125 
 48 126 53 
 127 55 126 
 127 128 57 
 128 129 59 
 129 130 61 
 130 131 63 
 131 132 65 
 133 67 132 
 133 134 69 
 134 135 71 
 135 136 73 
 136 137 75 
 137 138 77 
 138 139 79 
 139 140 81 
 140 141 83 
 141 142 85 
 142 143 87 
 143 144 89 
 144 145 91 
 145 146 93 
 146 147 95 
 147 148 97 
 148 149 99 
 104 150 151 
 105 104 152 
 106 105 153 
 107 106 154 
 108 107 155 
 109 108 156 
 110 109 157 
 111 110 158 
 112 111 159 
 113 112 160 
 114 113 161 
 115 114 162 
 116 115 163 
 117 116 164 
 117 165 118 
 119 118 166 
 120 119 167 
 121 120 168 
 122 121 169 
 123 122 170 
 124 123 171 
 172 125 124 
 126 125 173 
 126 173 127 
 127 174 128 
 128 175 129 
 129 176 130 
 130 177 131 
 131 178 132 
 132 179 133 
 133 180 134 
 181 135 134 
 135 182 136 
 136 183 137 
 137 184 138 
 138 185 139 
 139 186 140 
 140 187 141 
 141 188 142 
 142 189 143 
 143 190 144 
 144 191 145 
 145 192 146 
 146 193 147 
 147 194 148 
 148 195 149 
 152 104 151 
 153 105 152 
 154 106 153 
 155 107 154 
 156 108 155 
 157 109 156 
 158 110 157 
 159 111 158 
 160 112 159 
 161 113 160 
 162 114 161 
 163 115 162 
 164 116 163 
 117 164 165 
 166 118 165 
 167 119 166 
 168 120 167 
 169 121 168 
 170 122 169 
 171 123 170 
 171 172 124 
 173 125 172 
 127 173 174 
 174 175 128 
 175 176 129 
 176 177 130 
 177 178 131 
 178 179 132 
 179 180 133 
 180 181 134 
 182 135 181 
 182 183 136 
 183 184 137 
 184 185 138 
 185 186 139 
 186 187 140 
 187 188 141 
 188 189 142 
 189 190 143 
 190 191 144 
 191 192 145 
 192 193 146 
 193 194 147 
 194 195 148 
 195 196 149 
 152 151 197 
 153 152 198 
 154 153 199 
 155 154 200 
 156 155 201 
 157 156 202 
 158 157 203 
 159 158 204 
 160 159 205 
 161 160 206 
 162 161 207 
 162 208 163 
 164 163 209 
 165 164 210 
 166 165 211 
 167 166 212 
 168 167 213 
 169 168 214 
 170 169 215 
 171 170 216 
 172 171 217 
 174 173 172 
 174 218 175 
 175 219 176 
 220 177 176 
 177 221 178 
 178 222 179 
 179 223 180 
 224 181 180 
 181 225 182 
 182 226 183 
 227 184 183 
 184 228 185 
 229 186 185 
 186 230 187 
 187 231 188 
 188 232 189 
 189 233 190 
 190 234 191 
 235 192 191 
 192 236 193 
 193 237 194 
 194 238 195 
 195 239 196 
 197 151 240 
 198 152 197 
 199 153 198 
 200 154 199 
 201 155 200 
 202 156 201 
 203 157 202 
 204 158 203 
 205 159 204 
 206 160 205 
 207 161 206 
 162 207 208 
 209 163 208 
 210 164 209 
 211 165 210 
 212 166 211 
 213 167 212 
 214 168 213 
 215 169 214 
 216 170 215 
 217 171 216 
 174 172 217 
 218 219 175 
 174 217 218 
 219 220 176 
 221 177 220 
 221 222 178 
 222 223 179 
 223 224 180 
 225 181 224 
 225 226 182 
 226 227 183 
 228 184 227 
 228 229 185 
 230 186 229 
 230 231 187 
 231 232 188 
 232 233 189 
 233 234 190 
 234 235 191 
 236 192 235 
 236 237 193 
 237 238 194 
 238 239 195 
 239 241 196 
 197 240 242 
 198 197 243 
 199 198 244 
 200 199 245 
 201 200 246 
 202 201 247 
 202 248 203 
 204 203 249 
 204 250 205 
 205 251 206 
 252 207 206 
 208 207 253 
 208 254 209 
 210 209 255 
 211 210 256 
 212 211 257 
 213 212 258 
 213 259 214 
 214 260 215 
 216 215 261 
 217 216 262 
 262 219 218 
 217 262 218 
 219 263 220 
 264 221 220 
 265 222 221 
 222 266 223 
 223 267 224 
 224 268 225 
 225 269 226 
 270 227 226 
 227 271 228 
 228 272 229 
 273 230 229 
 274 231 230 
 231 275 232 
 276 233 232 
 233 277 234 
 234 278 235 
 235 279 236 
 236 280 237 
 237 281 238 
 238 282 239 
 283 241 239 
 243 197 242 
 244 198 243 
 245 199 244 
 246 200 245 
 247 201 246 
 202 247 248 
 249 203 248 
 204 249 250 
 205 250 251 
 251 252 206 
 253 207 252 
 208 253 254 
 255 209 254 
 256 210 255 
 257 211 256 
 258 212 257 
 213 258 259 
 214 259 260 
 261 215 260 
 262 216 261 
 263 219 262 
 263 264 220 
 265 221 264 
 266 222 265 
 266 267 223 
 267 268 224 
 268 269 225 
 269 270 226 
 271 227 270 
 271 272 228 
 272 273 229 
 274 230 273 
 275 231 274 
 275 276 232 
 277 233 276 
 277 278 234 
 278 279 235 
 279 280 236 
 280 281 237 
 281 282 238 
 282 283 239 
 243 242 284 
 243 285 244 
 244 286 245 
 287 246 245 
 246 288 247 
 247 289 248 
 249 248 290 
 250 249 291 
 251 250 292 
 251 293 252 
 253 252 294 
 254 253 295 
 255 254 296 
 256 255 297 
 257 256 298 
 257 299 258 
 258 300 259 
 259 301 260 
 261 260 302 
 262 261 303 
 262 303 263 
 263 304 264 
 305 265 264 
 266 265 306 
 307 267 266 
 267 308 268 
 268 309 269 
 269 310 270 
 270 311 271 
 271 312 272 
 313 273 272 
 273 314 274 
 274 315 275 
 275 316 276 
 317 277 276 
 318 278 277 
 278 319 279 
 320 280 279 
 321 281 280 
 281 322 282 