TITLE      =  "2D FE Unstructured grid data" 
VARIABLES = "X", "Y", "U", "Dom" 
ZONE T="P1", F=FEPOINT, N= 1567 E= 2964  ET=TRIANGLE 
 0.000000 0.000000 0.000000 0
 0.087327 0.087323 0.174650 0
 0.000000 0.200000 0.200000 0
 0.164068 0.294556 0.458624 0
 0.000000 0.400000 0.400000 0
 0.175415 0.489017 0.664432 0
 0.000000 0.600000 0.600000 0
 0.175187 0.691607 0.866793 0
 0.000000 0.800000 0.800000 0
 0.175773 0.893440 1.069213 0
 0.000000 1.000000 1.000000 0
 0.175430 1.095728 1.271159 0
 0.000000 1.200000 1.200000 0
 0.174509 1.297629 1.472139 0
 0.000000 1.400000 1.400000 0
 0.173791 1.498816 1.672607 0
 0.000000 1.600000 1.600000 0
 0.173419 1.699468 1.872888 0
 0.000000 1.800000 1.800000 0
 0.173268 1.899793 2.073063 0
 0.000000 2.000000 2.000000 0
 0.173220 2.099933 2.273154 0
 0.000000 2.200000 2.200000 0
 0.173207 2.299983 2.473192 0
 0.000000 2.400000 2.400000 0
 0.173205 2.499997 2.673203 0
 0.000000 2.600000 2.600000 0
 0.173205 2.700000 2.873207 0
 0.000000 2.800000 2.800000 0
 0.173205 2.900000 3.073207 0
 0.000000 3.000000 3.000000 0
 10.000000 7.200000 17.200001 0
 9.826795 7.100000 16.926809 0
 10.000000 7.000000 17.000000 0
 9.826795 6.900000 16.726803 0
 10.000000 6.800000 16.799999 0
 9.826795 6.700000 16.526804 0
 10.000000 6.600000 16.600000 0
 9.826795 6.500000 16.326817 0
 10.000000 6.400000 16.400000 0
 9.826795 6.300000 16.126810 0
 10.000000 6.200000 16.200001 0
 9.826795 6.100000 15.926804 0
 10.000000 6.000000 16.000000 0
 9.826795 5.900000 15.726809 0
 10.000000 5.800000 15.800000 0
 9.826795 5.700000 15.526804 0
 10.000000 5.600000 15.600000 0
 9.826795 5.500000 15.326798 0
 10.000000 5.400000 15.400000 0
 9.826795 5.300000 15.126810 0
 10.000000 5.200000 15.200000 0
 9.826795 5.100000 14.926808 0
 10.000000 5.000000 15.000000 0
 9.826795 4.900000 14.726807 0
 10.000000 4.800000 14.800000 0
 9.826795 4.700000 14.526807 0
 10.000000 4.600000 14.600000 0
 9.826795 4.500000 14.326807 0
 10.000000 4.400000 14.400000 0
 9.826795 4.300000 14.126803 0
 10.000000 4.200000 14.200000 0
 9.826795 4.100000 13.926805 0
 10.000000 4.000000 14.000000 0
 9.826795 3.900000 13.726807 0
 10.000000 3.800000 13.800000 0
 9.826795 3.700000 13.526801 0
 10.000000 3.600000 13.600000 0
 9.826795 3.500000 13.326802 0
 10.000000 3.400000 13.400000 0
 9.826795 3.300000 13.126801 0
 10.000000 3.200000 13.200000 0
 9.826795 3.100000 12.926801 0
 10.000000 3.000000 13.000000 0
 9.826795 2.900000 12.726799 0
 10.000000 2.800000 12.800000 0
 9.826795 2.700000 12.526797 0
 10.000000 2.600000 12.600000 0
 9.826796 2.500000 12.326801 0
 10.000000 2.400000 12.400000 0
 9.826795 2.300001 12.126798 0
 10.000000 2.200000 12.200000 0
 9.826790 2.100004 11.926796 0
 10.000000 2.000000 12.000000 0
 9.826769 1.899997 11.726768 0
 10.000000 1.800000 11.800000 0
 9.826718 1.699942 11.526669 0
 10.000000 1.600000 11.600000 0
 9.826645 1.499748 11.326394 0
 10.000000 1.400000 11.400000 0
 9.826605 1.299307 11.125910 0
 10.000000 1.200000 11.200000 0
 9.826694 1.098594 10.925284 0
 10.000000 1.000000 11.000000 0
 9.826888 0.897739 10.724626 0
 10.000000 0.800000 10.800000 0
 9.826661 0.696703 10.523359 0
 10.000000 0.600000 10.600000 0
 9.824934 0.493506 10.318439 0
 10.000000 0.400000 10.400000 0
 9.835630 0.297254 10.132881 0
 10.000000 0.200000 10.200000 0
 9.912641 0.087587 10.000232 0
 10.000000 0.000000 10.000000 0
 9.800000 0.000000 9.800000 0
 9.600000 0.000000 9.600000 0
 9.704722 0.166774 9.871493 0
 9.400000 0.000000 9.400000 0
 9.508581 0.180216 9.688795 0
 9.200000 0.000000 9.200000 0
 9.303722 0.180030 9.483756 0
 9.000000 0.000000 9.000000 0
 9.101120 0.177994 9.279119 0
 8.800000 0.000000 8.800000 0
 8.900103 0.175431 9.075530 0
 8.600000 0.000000 8.600000 0
 8.699998 0.174015 8.874009 0
 8.400000 0.000000 8.400000 0
 8.500047 0.173424 8.673474 0
 8.200000 0.000000 8.200000 0
 8.300056 0.173237 8.473297 0
 8.000000 0.000000 8.000000 0
 8.100037 0.173200 8.273236 0
 7.800000 0.000000 7.800000 0
 7.900016 0.173201 8.073211 0
 7.600000 0.000000 7.600000 0
 7.700005 0.173204 7.873207 0
 7.400000 0.000000 7.400000 0
 7.500001 0.173205 7.673204 0
 7.200000 0.000000 7.200000 0
 7.300000 0.173205 7.473205 0
 7.000000 0.000000 7.000000 0
 7.100000 0.173205 7.273204 0
 6.800000 0.000000 6.800000 0
 6.900000 0.173205 7.073205 0
 6.600000 0.000000 6.600000 0
 6.700000 0.173205 6.873207 0
 6.400000 0.000000 6.400000 0
 6.500000 0.173205 6.673209 0
 6.200000 0.000000 6.200000 0
 6.300000 0.173205 6.473208 0
 6.000000 0.000000 6.000000 0
 6.100000 0.173205 6.273205 0
 5.800000 0.000000 5.800000 0
 5.900000 0.173205 6.073208 0
 5.600000 0.000000 5.600000 0
 5.700000 0.173205 5.873207 0
 5.400000 0.000000 5.400000 0
 5.500000 0.173205 5.673209 0
 5.200000 0.000000 5.200000 0
 5.300000 0.173205 5.473207 0
 5.000000 0.000000 5.000000 0
 5.100000 0.173205 5.273209 0
 4.800000 0.000000 4.800000 0
 4.900000 0.173205 5.073207 0
 4.600000 0.000000 4.600000 0
 4.700000 0.173205 4.873209 0
 4.400000 0.000000 4.400000 0
 4.500000 0.173205 4.673209 0
 4.200000 0.000000 4.200000 0
 4.300000 0.173205 4.473207 0
 4.000000 0.000000 4.000000 0
 4.100000 0.173205 4.273210 0
 3.800000 0.000000 3.800000 0
 3.900000 0.173205 4.073212 0
 3.600000 0.000000 3.600000 0
 3.700000 0.173205 3.873211 0
 3.400000 0.000000 3.400000 0
 3.500000 0.173205 3.673208 0
 3.200000 0.000000 3.200000 0
 3.300000 0.173205 3.473207 0
 3.000000 0.000000 3.000000 0
 3.100000 0.173205 3.273207 0
 2.800000 0.000000 2.800000 0
 2.900000 0.173205 3.073206 0
 2.600000 0.000000 2.600000 0
 2.700000 0.173205 2.873206 0
 2.400000 0.000000 2.400000 0
 2.499997 0.173206 2.673204 0
 2.200000 0.000000 2.200000 0
 2.299983 0.173208 2.473191 0
 2.000000 0.000000 2.000000 0
 2.099934 0.173219 2.273153 0
 1.800000 0.000000 1.800000 0
 1.899802 0.173259 2.073062 0
 1.600000 0.000000 1.600000 0
 1.699498 0.173389 1.872888 0
 1.400000 0.000000 1.400000 0
 1.498881 0.173726 1.672607 0
 1.200000 0.000000 1.200000 0
 1.297737 0.174401 1.472139 0
 1.000000 0.000000 1.000000 0
 1.095870 0.175288 1.271159 0
 0.800000 0.000000 0.800000 0
 0.893593 0.175620 1.069213 0
 0.600000 0.000000 0.600000 0
 0.691741 0.175052 0.866793 0
 0.400000 0.000000 0.400000 0
 0.489115 0.175317 0.664432 0
 0.200000 0.000000 0.200000 0
 0.294610 0.164014 0.458624 0
 0.149248 0.149227 0.298476 0
 0.173205 3.100000 3.273208 0
 9.850587 0.150333 10.000920 0
 0.364719 0.364563 0.729282 0
 0.348253 0.582570 0.930823 0
 0.351911 0.783551 1.135463 0
 0.352893 0.988529 1.341424 0
 0.350517 1.193471 1.543990 0
 0.348400 1.396510 1.744911 0
 0.347229 1.598247 1.945477 0
 0.346699 1.799212 2.145913 0
 0.346493 1.999698 2.346195 0
 0.346428 2.199904 2.546335 0
 0.346412 2.399976 2.746391 0
 0.346410 2.599996 2.946409 0
 0.346410 2.799999 3.146413 0
 0.346410 3.000000 3.346416 0
 9.653590 7.000000 16.653599 0
 9.653590 6.800000 16.453602 0
 9.653590 6.600000 16.253609 0
 9.653590 6.400000 16.053610 0
 9.653590 6.200000 15.853609 0
 9.653590 6.000000 15.653609 0
 9.653590 5.800000 15.453611 0
 9.653590 5.600000 15.253612 0
 9.653590 5.400000 15.053608 0
 9.653590 5.200000 14.853605 0
 9.653590 5.000000 14.653604 0
 9.653590 4.800000 14.453608 0
 9.653590 4.600000 14.253613 0
 9.653590 4.400000 14.053611 0
 9.653590 4.200000 13.853606 0
 9.653590 4.000000 13.653599 0
 9.653590 3.800000 13.453594 0
 9.653590 3.600000 13.253598 0
 9.653590 3.400000 13.053606 0
 9.653590 3.200000 12.853598 0
 9.653590 3.000000 12.653595 0
 9.653590 2.800000 12.453596 0
 9.653590 2.600000 12.253590 0
 9.653592 2.400002 12.053595 0
 9.653589 2.200010 11.853606 0
 9.653562 2.000027 11.653596 0
 9.653461 1.800009 11.453479 0
 9.653239 1.599814 11.253059 0
 9.652949 1.399181 11.052137 0
 9.652830 1.197874 10.850706 0
 9.653275 0.996054 10.649336 0
 9.654196 0.794502 10.448698 0
 9.653635 0.594034 10.247669 0
 9.633580 0.372823 10.006399 0
 9.409357 0.361810 9.771169 0
 9.202974 0.360545 9.563525 0
 8.999496 0.352481 9.351979 0
 8.799597 0.348583 9.148185 0
 8.599996 0.346968 8.946962 0
 8.400155 0.346451 8.746605 0
 8.200141 0.346361 8.546498 0
 8.000079 0.346379 8.346454 0
 7.800033 0.346402 8.146434 0
 7.600011 0.346410 7.946418 0
 7.400003 0.346411 7.746407 0
 7.200001 0.346411 7.546408 0
 7.000000 0.346410 7.346406 0
 6.800000 0.346410 7.146407 0
 6.600000 0.346410 6.946411 0
 6.400000 0.346410 6.746411 0
 6.200000 0.346410 6.546413 0
 6.000000 0.346410 6.346416 0
 5.800000 0.346410 6.146416 0
 5.600000 0.346410 5.946416 0
 5.400000 0.346410 5.746418 0
 5.200000 0.346410 5.546415 0
 5.000000 0.346410 5.346416 0
 4.800000 0.346410 5.146416 0
 4.600000 0.346410 4.946419 0
 4.400000 0.346410 4.746417 0
 4.200000 0.346410 4.546416 0
 4.000000 0.346410 4.346418 0
 3.800000 0.346410 4.146417 0
 3.600000 0.346410 3.946418 0
 3.400000 0.346410 3.746416 0
 3.200000 0.346410 3.546414 0
 3.000000 0.346410 3.346413 0
 2.799999 0.346411 3.146413 0
 2.599994 0.346412 2.946409 0
 2.399972 0.346417 2.746390 0
 2.199898 0.346434 2.546334 0
 1.999698 0.346494 2.346194 0
 1.799239 0.346673 2.145913 0
 1.598330 0.347146 1.945477 0
 1.396678 0.348232 1.744911 0
 1.193725 0.350263 1.543991 0
 0.988833 0.352589 1.341425 0
 0.783846 0.351615 1.135462 0
 0.582808 0.348015 0.930823 0
 0.346410 3.200000 3.546417 0
 0.497809 0.497512 0.995322 0
 0.524303 0.667888 1.192193 0
 0.535935 0.875688 1.411625 0
 0.529597 1.087411 1.617010 0
 0.524426 1.292970 1.817397 0
 0.521805 1.495965 2.017771 0
 0.520541 1.697896 2.218438 0
 0.519944 1.899053 2.419001 0
 0.519704 2.099636 2.619344 0
 0.519631 2.299881 2.819515 0
 0.519616 2.499967 3.019588 0
 0.519615 2.699993 3.219613 0
 0.519615 2.899999 3.419621 0
 0.519615 3.100000 3.619622 0
 9.480385 6.900000 16.380402 0
 9.480385 6.700000 16.180397 0
 9.480385 6.500000 15.980400 0
 9.480385 6.300000 15.780405 0
 9.480385 6.100000 15.580409 0
 9.480385 5.900000 15.380410 0
 9.480385 5.700000 15.180410 0
 9.480385 5.500000 14.980410 0
 9.480385 5.300000 14.780409 0
 9.480385 5.100000 14.580407 0
 9.480385 4.900000 14.380409 0
 9.480385 4.700000 14.180414 0
 9.480385 4.500000 13.980404 0
 9.480385 4.300000 13.780407 0
 9.480385 4.100000 13.580401 0
 9.480385 3.900000 13.380401 0
 9.480385 3.700000 13.180399 0
 9.480385 3.500000 12.980404 0
 9.480385 3.300000 12.780398 0
 9.480385 3.100000 12.580396 0
 9.480385 2.900000 12.380396 0
 9.480386 2.699999 12.180396 0
 9.480391 2.499998 11.980392 0
 9.480398 2.300007 11.780412 0
 9.480389 2.100050 11.580447 0
 9.480285 1.900133 11.380423 0
 9.479924 1.700137 11.180073 0
 9.479170 1.499668 10.978840 0
 9.478285 1.298133 10.776420 0
 9.477967 1.095104 10.573078 0
 9.479834 0.891516 10.371354 0
 9.483906 0.690157 10.174064 0
 9.497973 0.516076 10.014053 0
 9.308722 0.561459 9.870180 0
 9.094481 0.530112 9.624598 0
 8.897707 0.522956 9.420669 0
 8.699534 0.520181 9.219714 0
 8.500291 0.519385 9.019677 0
 8.300405 0.519342 8.819745 0
 8.100284 0.519471 8.619753 0
 7.900150 0.519573 8.419717 0
 7.700065 0.519616 8.219674 0
 7.500023 0.519623 8.019639 0
 7.300007 0.519620 7.819622 0
 7.100001 0.519617 7.619615 0
 6.900000 0.519615 7.419613 0
 6.700000 0.519615 7.219616 0
 6.500000 0.519615 7.019620 0
 6.300000 0.519615 6.819622 0
 6.100000 0.519615 6.619623 0
 5.900000 0.519615 6.419624 0
 5.700000 0.519615 6.219625 0
 5.500000 0.519615 6.019623 0
 5.300000 0.519615 5.819625 0
 5.100000 0.519615 5.619627 0
 4.900000 0.519615 5.419627 0
 4.700000 0.519615 5.219625 0
 4.500000 0.519615 5.019626 0
 4.300000 0.519615 4.819623 0
 4.100000 0.519615 4.619627 0
 3.900000 0.519615 4.419628 0
 3.700000 0.519615 4.219626 0
 3.500000 0.519615 4.019622 0
 3.300000 0.519615 3.819621 0
 3.100000 0.519615 3.619621 0
 2.899998 0.519616 3.419618 0
 2.699988 0.519620 3.219612 0
 2.499955 0.519628 3.019585 0
 2.299857 0.519655 2.819516 0
 2.099603 0.519737 2.619342 0
 1.899034 0.519963 2.418999 0
 1.697936 0.520501 2.218438 0
 1.496118 0.521652 2.017770 0
 1.293265 0.524131 1.817397 0
 1.087824 0.529184 1.617011 0
 0.876140 0.535483 1.411625 0
 0.668282 0.523908 1.192192 0
 0.519615 3.300000 3.819626 0
 9.480384 7.100001 16.580395 0
 0.743781 0.743251 1.487034 0
 0.714766 0.982336 1.697105 0
 0.701785 1.189739 1.891526 0
 0.697349 1.392592 2.089942 0
 0.695211 1.595436 2.290647 0
 0.693850 1.797657 2.491509 0
 0.693159 1.998944 2.692106 0
 0.692903 2.199569 2.892474 0
 0.692837 2.399840 3.092681 0
 0.692825 2.599946 3.292778 0
 0.692823 2.799984 3.492815 0
 0.692821 2.999996 3.692826 0
 0.692821 3.199999 3.892831 0
 9.307177 7.000003 16.307196 0
 9.307179 6.800000 16.107199 0
 9.307179 6.600000 15.907194 0
 9.307179 6.400000 15.707205 0
 9.307179 6.200000 15.507205 0
 9.307179 6.000000 15.307209 0
 9.307179 5.800000 15.107211 0
 9.307179 5.600000 14.907211 0
 9.307179 5.400000 14.707209 0
 9.307179 5.200000 14.507211 0
 9.307179 5.000000 14.307206 0
 9.307179 4.800000 14.107215 0
 9.307179 4.600000 13.907210 0
 9.307179 4.400000 13.707206 0
 9.307179 4.200000 13.507207 0
 9.307179 4.000000 13.307201 0
 9.307179 3.800000 13.107200 0
 9.307179 3.600000 12.907203 0
 9.307179 3.400000 12.707200 0
 9.307179 3.200000 12.507196 0
 9.307179 2.999999 12.307194 0
 9.307180 2.799995 12.107191 0
 9.307187 2.599985 11.907179 0
 9.307206 2.399977 11.707188 0
 9.307241 2.200013 11.507264 0
 9.307230 2.000178 11.307416 0
 9.306939 1.800509 11.107456 0
 9.305885 1.600714 10.906610 0
 9.303614 1.399746 10.703365 0
 9.301503 1.196497 10.498007 0
 9.300078 0.989496 10.289580 0
 9.307668 0.782809 10.090477 0
 9.162893 0.688829 9.851725 0
 8.993343 0.694862 9.688204 0
 8.798278 0.691929 9.490213 0
 8.600464 0.691424 9.291888 0
 8.400994 0.691834 9.092825 0
 8.200827 0.692332 8.893155 0
 8.000520 0.692669 8.693176 0
 7.800275 0.692829 8.493093 0
 7.600124 0.692866 8.292980 0
 7.400046 0.692852 8.092891 0
 7.200013 0.692833 7.892840 0
 7.000003 0.692824 7.692824 0
 6.800000 0.692821 7.492823 0
 6.600000 0.692820 7.292824 0
 6.400000 0.692820 7.092829 0
 6.200000 0.692820 6.892828 0
 6.000000 0.692820 6.692833 0
 5.800000 0.692820 6.492834 0
 5.600000 0.692820 6.292833 0
 5.400000 0.692820 6.092835 0
 5.200000 0.692820 5.892835 0
 5.000000 0.692820 5.692836 0
 4.800000 0.692820 5.492837 0
 4.600000 0.692820 5.292834 0
 4.400000 0.692820 5.092837 0
 4.200000 0.692820 4.892834 0
 4.000000 0.692820 4.692833 0
 3.800000 0.692820 4.492831 0
 3.600000 0.692820 4.292834 0
 3.400000 0.692820 4.092830 0
 3.199999 0.692821 3.892828 0
 2.999994 0.692823 3.692824 0
 2.799976 0.692830 3.492812 0
 2.599922 0.692849 3.292776 0
 2.399786 0.692890 3.092679 0
 2.199478 0.692994 2.892474 0
 1.998829 0.693274 2.692104 0
 1.797570 0.693937 2.491507 0
 1.595460 0.695187 2.290647 0
 1.392801 0.697140 2.089940 0
 1.190151 0.701374 1.891526 0
 0.982873 0.714229 1.697104 0
 9.307167 7.200013 16.507196 0
 0.904692 0.904113 1.808807 0
 0.875262 1.093654 1.968918 0
 0.872672 1.288373 2.161046 0
 0.871424 1.491271 2.362696 0
 0.868759 1.695209 2.563968 0
 0.867031 1.897566 2.764599 0
 0.866326 2.098787 2.965116 0
 0.866119 2.299415 3.165538 0
 0.866070 2.499735 3.365809 0
 0.866050 2.699891 3.565950 0
 0.866037 2.899961 3.766008 0
 0.866029 3.099989 3.966030 0
 9.133947 7.100021 16.233978 0
 9.133968 6.900004 16.033993 0
 9.133974 6.700001 15.833992 0
 9.133975 6.500000 15.634003 0
 9.133975 6.300000 15.434002 0
 9.133975 6.100000 15.234012 0
 9.133975 5.900000 15.034006 0
 9.133975 5.700000 14.834008 0
 9.133975 5.500000 14.634005 0
 9.133975 5.300000 14.434011 0
 9.133975 5.100000 14.234008 0
 9.133975 4.900000 14.034007 0
 9.133975 4.700000 13.834015 0
 9.133975 4.500000 13.634007 0
 9.133975 4.300000 13.434007 0
 9.133975 4.100000 13.234001 0
 9.133975 3.900000 13.033999 0
 9.133975 3.700000 12.833996 0
 9.133975 3.500000 12.633997 0
 9.133975 3.300000 12.433991 0
 9.133974 3.099998 12.233988 0
 9.133974 2.899988 12.033978 0
 9.133978 2.699961 11.833955 0
 9.134001 2.499909 11.633918 0
 9.134073 2.299867 11.433949 0
 9.134215 2.099976 11.234202 0
 9.134283 1.900495 11.034786 0
 9.133684 1.701602 10.835295 0
 9.131061 1.502725 10.633790 0
 9.124093 1.300443 10.424539 0
 9.122599 1.095314 10.217921 0
 9.108246 0.874847 9.983100 0
 8.896146 0.860498 9.756654 0
 8.700866 0.861507 9.562372 0
 8.502232 0.863358 9.365587 0
 8.302035 0.864744 9.166770 0
 8.101452 0.865608 8.967049 0
 7.900900 0.866078 8.766962 0
 7.700478 0.866220 8.566690 0
 7.500211 0.866181 8.366387 0
 7.300076 0.866104 8.166175 0
 7.100021 0.866053 7.966073 0
 6.900004 0.866032 7.766033 0
 6.700001 0.866026 7.566027 0
 6.500000 0.866025 7.366033 0
 6.300000 0.866025 7.166035 0
 6.100000 0.866025 6.966038 0
 5.900000 0.866025 6.766037 0
 5.700000 0.866025 6.566043 0
 5.500000 0.866025 6.366041 0
 5.300000 0.866025 6.166043 0
 5.100000 0.866025 5.966040 0
 4.900000 0.866025 5.766042 0
 4.700000 0.866025 5.566042 0
 4.500000 0.866025 5.366044 0
 4.300000 0.866025 5.166041 0
 4.100000 0.866025 4.966042 0
 3.900000 0.866025 4.766039 0
 3.700000 0.866025 4.566040 0
 3.500000 0.866025 4.366040 0
 3.299998 0.866026 4.166036 0
 3.099987 0.866030 3.966027 0
 2.899952 0.866046 3.766006 0
 2.699857 0.866084 3.565948 0
 2.499648 0.866157 3.365810 0
 2.299244 0.866290 3.165535 0
 2.098526 0.866586 2.965112 0
 1.897262 0.867335 2.764597 0
 1.694964 0.869005 2.563969 0
 1.491213 0.871483 2.362696 0
 1.288591 0.872455 2.161047 0
 1.094124 0.874793 1.968919 0
 0.866026 3.299998 4.166038 0
 9.133895 7.300073 16.433985 0
 1.018832 1.018379 2.037213 0
 1.041813 1.179793 2.221606 0
 1.051907 1.382795 2.434702 0
 1.045834 1.591803 2.637639 0
 1.041593 1.795566 2.837161 0
 1.040010 1.997238 3.037252 0
 1.039571 2.198299 3.237873 0
 1.039447 2.399035 3.438487 0
 1.039374 2.599509 3.638889 0
 1.039306 2.799782 3.839096 0
 1.039260 2.999919 4.039190 0
 1.039239 3.199976 4.239229 0
 8.960624 7.200102 16.160730 0
 8.960724 7.000029 15.960776 0
 8.960760 6.800006 15.760789 0
 8.960768 6.600001 15.560795 0
 8.960770 6.400000 15.360798 0
 8.960770 6.200000 15.160802 0
 8.960770 6.000000 14.960800 0
 8.960770 5.800000 14.760807 0
 8.960770 5.600000 14.560810 0
 8.960770 5.400000 14.360805 0
 8.960770 5.200000 14.160808 0
 8.960770 5.000000 13.960806 0
 8.960770 4.800000 13.760810 0
 8.960770 4.600000 13.560799 0
 8.960770 4.400000 13.360803 0
 8.960770 4.200000 13.160795 0
 8.960770 4.000000 12.960798 0
 8.960770 3.800000 12.760793 0
 8.960770 3.600000 12.560793 0
 8.960770 3.400000 12.360791 0
 8.960769 3.199996 12.160783 0
 8.960766 2.999979 11.960765 0
 8.960763 2.799926 11.760706 0
 8.960771 2.599804 11.560590 0
 8.960836 2.399608 11.360459 0
 8.961060 2.199445 11.160517 0
 8.961563 1.999703 10.961274 0
 8.962123 1.801100 10.763236 0
 8.961451 1.604329 10.565787 0
 8.956517 1.409660 10.366184 0
 8.927285 1.198459 10.125750 0
 8.971709 1.011493 9.983202 0
 8.802156 1.027864 9.830025 0
 8.604830 1.033423 9.638260 0
 8.404392 1.036631 9.441021 0
 8.203375 1.038248 9.241616 0
 8.002403 1.039413 9.041810 0
 7.801457 1.039881 8.841326 0
 7.600734 1.039816 8.640544 0
 7.400304 1.039573 8.439869 0
 7.200104 1.039376 8.239476 0
 7.000029 1.039276 8.039308 0
 6.800006 1.039240 7.839248 0
 6.600001 1.039232 7.639238 0
 6.400000 1.039231 7.439241 0
 6.200000 1.039230 7.239244 0
 6.000000 1.039230 7.039245 0
 5.800000 1.039230 6.839249 0
 5.600000 1.039230 6.639248 0
 5.400000 1.039230 6.439250 0
 5.200000 1.039230 6.239250 0
 5.000000 1.039230 6.039248 0
 4.800000 1.039230 5.839250 0
 4.600000 1.039230 5.639252 0
 4.400000 1.039230 5.439250 0
 4.200000 1.039230 5.239248 0
 4.000000 1.039230 5.039250 0
 3.800000 1.039230 4.839248 0
 3.599999 1.039230 4.639246 0
 3.399995 1.039232 4.439242 0
 3.199976 1.039239 4.239228 0
 2.999912 1.039267 4.039189 0
 2.799748 1.039341 3.839096 0
 2.599402 1.039480 3.638887 0
 2.398795 1.039687 3.438485 0
 2.197882 1.039987 3.237871 0
 1.996660 1.040587 3.037249 0
 1.794932 1.042226 2.837157 0
 1.591289 1.046349 2.637639 0
 1.382576 1.052126 2.434703 0
 1.179966 1.041640 2.221607 0
 1.255007 1.255433 2.510440 0
 1.227789 1.490121 2.717911 0
 1.216409 1.694494 2.910903 0
 1.213714 1.894848 3.108565 0
 1.213291 2.095873 3.309167 0
 1.213169 2.297191 3.510362 0
 1.213006 2.498325 3.711336 0
 1.212784 2.699132 3.911922 0
 1.212597 2.899615 4.112221 0
 1.212491 3.099857 4.312358 0
 8.787356 7.100121 15.887488 0
 8.787506 6.900036 15.687563 0
 8.787553 6.700009 15.487589 0
 8.787562 6.500002 15.287600 0
 8.787564 6.300000 15.087598 0
 8.787564 6.100000 14.887603 0
 8.787564 5.900000 14.687605 0
 8.787564 5.700000 14.487605 0
 8.787564 5.500000 14.287605 0
 8.787564 5.300000 14.087604 0
 8.787564 5.100000 13.887610 0
 8.787564 4.900000 13.687608 0
 8.787564 4.700000 13.487604 0
 8.787564 4.500000 13.287600 0
 8.787564 4.300000 13.087602 0
 8.787564 4.100000 12.887592 0
 8.787564 3.900000 12.687592 0
 8.787564 3.700000 12.487584 0
 8.787563 3.499999 12.287579 0
 8.787560 3.299994 12.087574 0
 8.787551 3.099968 11.887535 0
 8.787533 2.899883 11.687431 0
 8.787511 2.699674 11.487202 0
 8.787519 2.499275 11.286811 0
 8.787670 2.298691 11.086370 0
 8.788253 2.098170 10.886436 0
 8.789836 1.898629 10.688472 0
 8.792221 1.701819 10.494049 0
 8.792980 1.509298 10.302288 0
 8.801353 1.342790 10.144148 0
 8.710614 1.201247 9.911863 0
 8.508730 1.209343 9.718074 0
 8.306453 1.210192 9.516641 0
 8.105444 1.212754 9.318185 0
 7.903730 1.214213 9.117935 0
 7.702051 1.214218 8.916258 0
 7.500936 1.213598 8.714525 0
 7.300362 1.212997 8.513353 0
 7.100121 1.212644 8.312765 0
 6.900037 1.212494 8.112533 0
 6.700010 1.212448 7.912462 0
 6.500002 1.212437 7.712445 0
 6.300000 1.212436 7.512450 0
 6.100000 1.212436 7.312454 0
 5.900000 1.212436 7.112453 0
 5.700000 1.212436 6.912457 0
 5.500000 1.212436 6.712457 0
 5.300000 1.212436 6.512456 0
 5.100000 1.212436 6.312455 0
 4.900000 1.212436 6.112457 0
 4.700000 1.212436 5.912455 0
 4.500000 1.212436 5.712456 0
 4.300000 1.212436 5.512455 0
 4.100000 1.212436 5.312454 0
 3.900000 1.212436 5.112454 0
 3.699999 1.212436 4.912452 0
 3.499992 1.212437 4.712443 0
 3.299960 1.212447 4.512420 0
 3.099859 1.212489 4.312357 0
 2.899597 1.212616 4.112221 0
 2.699040 1.212877 3.911922 0
 2.498069 1.213261 3.711334 0
 2.296674 1.213685 3.510361 0
 2.095055 1.214109 3.309167 0
 1.893812 1.214750 3.108563 0
 1.693428 1.217475 2.910903 0
 1.489260 1.228650 2.717910 0
 8.787004 7.300355 16.087378 0
 1.413810 1.415033 2.828842 0
 1.386281 1.600956 2.987237 0
 1.385638 1.791814 3.177454 0
 1.387263 1.991152 3.378417 0
 1.387521 2.193173 3.580696 0
 1.387376 2.395406 3.782785 0
 1.386863 2.597319 3.984185 0
 1.386290 2.798646 4.184940 0
 1.385907 2.999408 4.385324 0
 8.613657 7.200366 15.814043 0
 8.614130 7.000137 15.614290 0
 8.614302 6.800049 15.414380 0
 8.614348 6.600015 15.214390 0
 8.614358 6.400003 15.014393 0
 8.614359 6.200000 14.814392 0
 8.614359 6.000000 14.614401 0
 8.614359 5.800000 14.414403 0
 8.614359 5.600000 14.214409 0
 8.614359 5.400000 14.014404 0
 8.614359 5.200000 13.814402 0
 8.614359 5.000000 13.614404 0
 8.614359 4.800000 13.414402 0
 8.614359 4.600000 13.214402 0
 8.614359 4.400000 13.014398 0
 8.614359 4.200000 12.814389 0
 8.614359 4.000000 12.614389 0
 8.614359 3.800000 12.414387 0
 8.614358 3.600000 12.214379 0
 8.614349 3.399994 12.014365 0
 8.614326 3.199962 11.814303 0
 8.614273 2.999846 11.614138 0
 8.614191 2.799542 11.413748 0
 8.614109 2.598920 11.213042 0
 8.614108 2.397896 11.012019 0
 8.614361 2.196484 10.810855 0
 8.615487 1.994905 10.610400 0
 8.620175 1.795360 10.415547 0
 8.627611 1.601984 10.229599 0
 8.619170 1.395246 10.014421 0
 8.408265 1.378965 9.787237 0
 8.210850 1.385088 9.595936 0
 8.008467 1.389786 9.398245 0
 7.804851 1.390228 9.195075 0
 7.602309 1.388886 8.991185 0
 7.400953 1.387343 8.788285 0
 7.200369 1.386347 8.586711 0
 7.000139 1.385873 8.386012 0
 6.800050 1.385701 8.185757 0
 6.600016 1.385652 7.985677 0
 6.400004 1.385642 7.785655 0
 6.200001 1.385641 7.585654 0
 6.000000 1.385641 7.385659 0
 5.800000 1.385641 7.185661 0
 5.600000 1.385641 6.985662 0
 5.400000 1.385641 6.785665 0
 5.200000 1.385641 6.585662 0
 5.000000 1.385641 6.385660 0
 4.800000 1.385641 6.185661 0
 4.600000 1.385641 5.985659 0
 4.400000 1.385641 5.785659 0
 4.200000 1.385641 5.585659 0
 4.000000 1.385641 5.385660 0
 3.799998 1.385641 5.185654 0
 3.599986 1.385643 4.985643 0
 3.399940 1.385655 4.785609 0
 3.199795 1.385710 4.585515 0
 2.999422 1.385893 4.385321 0
 2.798613 1.386324 4.184944 0
 2.597134 1.387048 3.984186 0
 2.394919 1.387862 3.782781 0
 2.192274 1.388420 3.580692 0
 1.989850 1.388565 3.378416 0
 1.790279 1.387172 3.177452 0
 1.599464 1.387774 2.987237 0
 1.385725 3.199780 4.585518 0
 1.526350 1.528089 3.054438 0
 1.549493 1.685172 3.234664 0
 1.562431 1.881507 3.443938 0
 1.562629 2.085799 3.648429 0
 1.563078 2.289425 3.852504 0
 1.562317 2.493238 4.055556 0
 1.560908 2.696254 4.257167 0
 1.559807 2.898145 4.457958 0
 1.559211 3.099183 4.658404 0
 8.440486 7.100379 15.540890 0
 8.440960 6.900178 15.341172 0
 8.441110 6.700073 15.141213 0
 8.441147 6.500024 14.941206 0
 8.441154 6.300005 14.741198 0
 8.441154 6.100001 14.541197 0
 8.441154 5.900000 14.341198 0
 8.441154 5.700000 14.141200 0
 8.441154 5.500000 13.941209 0
 8.441154 5.300000 13.741205 0
 8.441154 5.100000 13.541206 0
 8.441154 4.900000 13.341207 0
 8.441154 4.700000 13.141199 0
 8.441154 4.500000 12.941195 0
 8.441154 4.300000 12.741192 0
 8.441154 4.100000 12.541189 0
 8.441154 3.900000 12.341182 0
 8.441152 3.700001 12.141181 0
 8.441137 3.499998 11.941158 0
 8.441090 3.299971 11.741087 0
 8.440974 3.099846 11.540835 0
 8.440769 2.899465 11.340250 0
 8.440510 2.698614 11.139136 0
 8.440325 2.497134 10.937472 0
 8.440343 2.295050 10.735401 0
 8.440477 2.092296 10.532784 0
 8.440657 1.886963 10.327628 0
 8.456622 1.686969 10.143604 0
 8.486101 1.522864 10.008970 0
 8.320724 1.550891 9.871618 0
 8.118619 1.568232 9.686850 0
 7.910056 1.569237 9.479292 0
 7.704708 1.566725 9.271429 0
 7.501908 1.563083 9.064985 0
 7.300817 1.560709 8.861518 0
 7.100385 1.559523 8.659905 0
 6.900183 1.559046 8.459228 0
 6.700077 1.558892 8.258975 0
 6.500026 1.558854 8.058884 0
 6.300006 1.558847 7.858860 0
 6.100001 1.558846 7.658861 0
 5.900000 1.558846 7.458864 0
 5.700000 1.558846 7.258864 0
 5.500000 1.558846 7.058866 0
 5.300000 1.558846 6.858868 0
 5.100000 1.558846 6.658866 0
 4.900000 1.558846 6.458865 0
 4.700000 1.558846 6.258864 0
 4.500000 1.558846 6.058863 0
 4.300000 1.558846 5.858864 0
 4.099999 1.558846 5.658861 0
 3.899996 1.558846 5.458857 0
 3.699978 1.558849 5.258839 0
 3.499912 1.558864 5.058787 0
 3.299718 1.558932 4.858660 0
 3.099237 1.559158 4.658401 0
 2.898202 1.559751 4.457957 0
 2.696223 1.560940 4.257165 0
 2.492949 1.562607 4.055557 0
 2.288685 1.563819 3.852504 0
 2.084512 1.563916 3.648429 0
 1.879792 1.564146 3.443938 0
 1.683303 1.551363 3.234666 0
 1.558960 3.299690 4.858663 0
 1.753661 1.755524 3.509185 0
 1.736856 1.976105 3.712962 0
 1.740183 2.178912 3.919097 0
 1.740562 2.385413 4.125977 0
 1.737502 2.591534 4.329040 0
 1.734812 2.795401 4.530218 0
 1.733257 2.997668 4.730931 0
 1.732511 3.198942 4.931463 0
 8.267476 7.000492 15.267997 0
 8.267821 6.800259 15.068113 0
 8.267919 6.600107 14.868064 0
 8.267941 6.400033 14.668015 0
 8.267947 6.200007 14.467999 0
 8.267949 6.000001 14.267993 0
 8.267949 5.800000 14.068000 0
 8.267949 5.600000 13.868006 0
 8.267949 5.400000 13.668002 0
 8.267949 5.200000 13.468007 0
 8.267949 5.000000 13.268003 0
 8.267949 4.800000 13.068001 0
 8.267949 4.600000 12.868001 0
 8.267949 4.400000 12.667994 0
 8.267949 4.200000 12.467986 0
 8.267949 4.000000 12.267985 0
 8.267944 3.800003 12.067979 0
 8.267925 3.600008 11.867959 0
 8.267854 3.400002 11.667878 0
 8.267656 3.199914 11.467591 0
 8.267243 2.999542 11.266801 0
 8.266620 2.798540 11.065173 0
 8.266002 2.596555 10.862565 0
 8.265861 2.393630 10.659494 0
 8.266347 2.190456 10.456810 0
 8.265920 1.987779 10.253701 0
 8.246576 1.763064 10.009644 0
 8.017666 1.751873 9.769541 0
 7.808210 1.750072 9.558280 0
 7.602533 1.740929 9.343462 0
 7.401227 1.735968 9.137196 0
 7.200796 1.733546 8.934341 0
 7.000508 1.732529 8.733043 0
 6.800273 1.732174 8.532450 0
 6.600117 1.732074 8.332200 0
 6.400039 1.732053 8.132096 0
 6.200009 1.732050 7.932068 0
 6.000001 1.732051 7.732067 0
 5.800000 1.732051 7.532073 0
 5.600000 1.732051 7.332071 0
 5.400000 1.732051 7.132073 0
 5.200000 1.732051 6.932073 0
 5.000000 1.732051 6.732069 0
 4.800000 1.732051 6.532071 0
 4.600000 1.732051 6.332070 0
 4.400000 1.732051 6.132070 0
 4.199999 1.732051 5.932065 0
 3.999993 1.732051 5.732057 0
 3.799968 1.732056 5.532036 0
 3.599878 1.732077 5.331968 0
 3.399626 1.732161 5.131799 0
 3.199031 1.732421 4.931460 0
 2.997818 1.733107 4.730931 0
 2.795563 1.734651 4.530216 0
 2.591559 1.737477 4.329038 0
 2.385063 1.740912 4.125975 0
 2.177982 1.741112 3.919094 0
 1.974583 1.738378 3.712961 0
 1.732201 3.399587 5.131802 0
 8.266472 7.200780 15.467280 0
 1.888216 1.889735 3.777952 0
 1.914438 2.061578 3.976017 0
 1.925266 2.270957 4.196227 0
 1.917839 2.484147 4.401987 0
 1.911728 2.690839 4.602570 0
 1.908412 2.894665 4.803079 0
 1.906691 3.097172 5.003870 0
 1.905827 3.298693 5.204531 0
 8.093918 7.101106 15.195048 0
 8.094476 6.900727 14.995234 0
 8.094647 6.700355 14.795036 0
 8.094705 6.500129 14.594875 0
 8.094728 6.300033 14.394803 0
 8.094739 6.100005 14.194786 0
 8.094743 5.900000 13.994792 0
 8.094744 5.700000 13.794795 0
 8.094744 5.500000 13.594800 0
 8.094744 5.300000 13.394803 0
 8.094744 5.100000 13.194798 0
 8.094744 4.900000 12.994797 0
 8.094744 4.700000 12.794794 0
 8.094744 4.500000 12.594791 0
 8.094744 4.300000 12.394788 0
 8.094743 4.100001 12.194785 0
 8.094737 3.900007 11.994774 0
 8.094712 3.700023 11.794763 0
 8.094624 3.500053 11.594704 0
 8.094363 3.300058 11.394443 0
 8.093734 3.099853 11.193603 0
 8.092539 2.898961 10.991511 0
 8.090991 2.696705 10.787698 0
 8.089789 2.492572 10.582368 0
 8.090695 2.287455 10.378159 0
 8.094004 2.084160 10.178168 0
 8.107946 1.908099 10.016044 0
 7.916114 1.953064 9.869180 0
 7.699193 1.920100 9.619290 0
 7.500632 1.911615 9.412245 0
 7.301202 1.907701 9.208899 0