TITLE      =  "2D FE Unstructured grid data" 
VARIABLES = "X", "Y", "U", "Dom" 
ZONE T="P1", F=FEPOINT, N= 1486 E= 2804  ET=TRIANGLE 
 0.000000 3.000000 3.000000 1
 0.173205 3.100000 3.273208 1
 0.000000 3.200000 3.200000 1
 0.173205 3.300000 3.473210 1
 0.000000 3.400000 3.400000 1
 0.173205 3.500000 3.673211 1
 0.000000 3.600000 3.600000 1
 0.173205 3.700000 3.873212 1
 0.000000 3.800000 3.800000 1
 0.173205 3.900000 4.073212 1
 0.000000 4.000000 4.000000 1
 0.173205 4.100000 4.273210 1
 0.000000 4.200000 4.200000 1
 0.173205 4.300000 4.473211 1
 0.000000 4.400000 4.400000 1
 0.173205 4.500000 4.673211 1
 0.000000 4.600000 4.600000 1
 0.173205 4.700000 4.873212 1
 0.000000 4.800000 4.800000 1
 0.173205 4.900000 5.073210 1
 0.000000 5.000000 5.000000 1
 0.000000 5.200000 5.200000 1
 0.173205 5.100000 5.273211 1
 0.173205 5.300000 5.473208 1
 0.000000 5.400000 5.400000 1
 0.173205 5.500000 5.673209 1
 0.000000 5.600000 5.600000 1
 0.173205 5.700000 5.873208 1
 0.000000 5.800000 5.800000 1
 0.173205 5.900000 6.073210 1
 0.000000 6.000000 6.000000 1
 0.173205 6.100000 6.273210 1
 0.000000 6.200000 6.200000 1
 0.173205 6.300000 6.473212 1
 0.000000 6.400000 6.400000 1
 0.173205 6.500000 6.673207 1
 0.000000 6.600000 6.600000 1
 0.173205 6.700000 6.873207 1
 0.000000 6.800000 6.800000 1
 0.173205 6.900000 7.073206 1
 0.000000 7.000000 7.000000 1
 0.173205 7.100000 7.273204 1
 0.000000 7.200000 7.200000 1
 0.173205 7.300000 7.473206 1
 0.000000 7.400000 7.400000 1
 0.173205 7.500000 7.673204 1
 0.000000 7.600000 7.600000 1
 0.173205 7.699999 7.873202 1
 0.000000 7.800000 7.800000 1
 0.173210 7.899996 8.073208 1
 0.000000 8.000000 8.000000 1
 0.173231 8.100002 8.273232 1
 0.000000 8.200000 8.200000 1
 0.173282 8.300057 8.473337 1
 0.000000 8.400000 8.400000 1
 0.173355 8.500252 8.673607 1
 0.000000 8.600000 8.600000 1
 0.173396 8.700693 8.874086 1
 0.000000 8.800000 8.800000 1
 0.173305 8.901406 9.074711 1
 0.000000 9.000000 9.000000 1
 0.173112 9.102262 9.275371 1
 0.000000 9.200000 9.200000 1
 0.173339 9.303297 9.476633 1
 0.000000 9.400000 9.400000 1
 0.175066 9.506494 9.681561 1
 0.000000 9.600000 9.600000 1
 0.164370 9.702746 9.867120 1
 0.000000 9.800000 9.800000 1
 0.087359 9.912414 9.999776 1
 0.000000 10.000000 10.000000 1
 0.200000 10.000000 10.200000 1
 0.295277 9.833226 10.128504 1
 0.400000 10.000000 10.400000 1
 0.491419 9.819784 10.311208 1
 0.600000 10.000000 10.600000 1
 0.696277 9.819970 10.516251 1
 0.800000 10.000000 10.800000 1
 0.898880 9.822006 10.720884 1
 1.000000 10.000000 11.000000 1
 1.099898 9.824569 10.924461 1
 1.200000 10.000000 11.200000 1
 1.300002 9.825985 11.125991 1
 1.400000 10.000000 11.400000 1
 1.499953 9.826576 11.326537 1
 1.600000 10.000000 11.600000 1
 1.699943 9.826763 11.526712 1
 1.800000 10.000000 11.800000 1
 1.899964 9.826800 11.726764 1
 2.000000 10.000000 12.000000 1
 2.099984 9.826799 11.926785 1
 2.200000 10.000000 12.200000 1
 2.299995 9.826796 12.126793 1
 2.400000 10.000000 12.400000 1
 2.499999 9.826795 12.326798 1
 2.600000 10.000000 12.600000 1
 2.700000 9.826795 12.526798 1
 2.800000 10.000000 12.800000 1
 2.900000 9.826795 12.726795 1
 3.000000 10.000000 13.000000 1
 3.100000 9.826795 12.926800 1
 3.200000 10.000000 13.200000 1
 3.300000 9.826795 13.126797 1
 3.400000 10.000000 13.400000 1
 3.500000 9.826795 13.326797 1
 3.600000 10.000000 13.600000 1
 3.700000 9.826795 13.526800 1
 3.800000 10.000000 13.800000 1
 3.900000 9.826795 13.726803 1
 4.000000 10.000000 14.000000 1
 4.100000 9.826795 13.926805 1
 4.200000 10.000000 14.200000 1
 4.300000 9.826795 14.126807 1
 4.400000 10.000000 14.400000 1
 4.500000 9.826795 14.326809 1
 4.600000 10.000000 14.600000 1
 4.700000 9.826795 14.526810 1
 4.800000 10.000000 14.800000 1
 4.900000 9.826795 14.726805 1
 5.000000 10.000000 15.000000 1
 5.200000 10.000000 15.200000 1
 5.100000 9.826795 14.926805 1
 5.300000 9.826795 15.126810 1
 5.400000 10.000000 15.400000 1
 5.500000 9.826795 15.326811 1
 5.600000 10.000000 15.600000 1
 5.700000 9.826795 15.526804 1
 5.800000 10.000000 15.800000 1
 5.900000 9.826795 15.726808 1
 6.000000 10.000000 16.000000 1
 6.100000 9.826795 15.926806 1
 6.200000 10.000000 16.200001 1
 6.300000 9.826795 16.126797 1
 6.400000 10.000000 16.400000 1
 6.500000 9.826795 16.326803 1
 6.600000 10.000000 16.600000 1
 6.700000 9.826795 16.526796 1
 6.800000 10.000000 16.799999 1
 6.900000 9.826795 16.726799 1
 7.000000 10.000000 17.000000 1
 7.100000 9.826795 16.926809 1
 7.200000 10.000000 17.200001 1
 7.300000 9.826795 17.126801 1
 7.400000 10.000000 17.400000 1
 7.500000 9.826796 17.326790 1
 7.600000 10.000000 17.600000 1
 7.700002 9.826799 17.526802 1
 7.800000 10.000000 17.799999 1
 7.900011 9.826811 17.726830 1
 8.000000 10.000000 18.000000 1
 8.100041 9.826840 17.926888 1
 8.200000 10.000000 18.200001 1
 8.300128 9.826893 18.127028 1
 8.400000 10.000000 18.400000 1
 8.500334 9.826964 18.327303 1
 8.600000 10.000000 18.600000 1
 8.700749 9.827041 18.527790 1
 8.800000 10.000000 18.799999 1
 8.901427 9.827153 18.728588 1
 9.000000 10.000000 19.000000 1
 9.102324 9.827316 18.929647 1
 9.200000 10.000000 19.200001 1
 9.303625 9.827213 19.130833 1
 9.400000 10.000000 19.400000 1
 9.507698 9.826240 19.333942 1
 9.600000 10.000000 19.600000 1
 9.707205 9.840112 19.547318 1
 9.800000 10.000000 19.799999 1
 9.868964 9.869840 19.738806 1
 10.000000 10.000000 20.000000 1
 10.000000 9.800000 19.799999 1
 9.837681 9.709203 19.546875 1
 10.000000 9.600000 19.600000 1
 9.820952 9.509867 19.330828 1
 10.000000 9.400000 19.400000 1
 9.820171 9.304181 19.124361 1
 10.000000 9.200000 19.200001 1
 9.821795 9.101304 18.923090 1
 10.000000 9.000000 19.000000 1
 9.824164 8.900148 18.724314 1
 10.000000 8.800000 18.799999 1
 9.825560 8.699957 18.525526 1
 10.000000 8.600000 18.600000 1
 9.826258 8.499968 18.326231 1
 10.000000 8.400000 18.400000 1
 9.826588 8.299988 18.126575 1
 10.000000 8.200000 18.200001 1
 9.826729 8.099998 17.926735 1
 10.000000 8.000000 18.000000 1
 9.826778 7.900001 17.726774 1
 10.000000 7.800000 17.799999 1
 9.826792 7.700001 17.526794 1
 10.000000 7.600000 17.600000 1
 9.826795 7.500000 17.326797 1
 10.000000 7.400000 17.400000 1
 9.826795 7.300000 17.126793 1
 10.000000 7.200000 17.200001 1
 0.149413 9.849668 9.999083 1
 9.826795 7.100000 16.926809 1
 0.346410 3.200000 3.546417 1
 0.346410 3.400000 3.746418 1
 0.346410 3.600000 3.946421 1
 0.346410 3.800000 4.146424 1
 0.346410 4.000000 4.346423 1
 0.346410 4.200000 4.546422 1
 0.346410 4.400000 4.746421 1
 0.346410 4.600000 4.946422 1
 0.346410 4.800000 5.146422 1
 0.346410 5.000000 5.346423 1
 0.346410 5.200000 5.546421 1
 0.346410 5.400000 5.746418 1
 0.346410 5.600000 5.946417 1
 0.346410 5.800000 6.146420 1
 0.346410 6.000000 6.346420 1
 0.346410 6.200000 6.546416 1
 0.346410 6.400000 6.746417 1
 0.346410 6.600000 6.946414 1
 0.346410 6.800000 7.146413 1
 0.346410 7.000000 7.346409 1
 0.346410 7.200000 7.546410 1
 0.346410 7.400000 7.746407 1
 0.346408 7.599998 7.946402 1
 0.346411 7.799990 8.146396 1
 0.346439 7.999973 8.346409 1
 0.346539 8.199990 8.546528 1
 0.346761 8.400186 8.746938 1
 0.347051 8.600819 8.947869 1
 0.347170 8.802126 9.149298 1
 0.346724 9.003945 9.350674 1
 0.345804 9.205498 9.551307 1
 0.346365 9.405966 9.752332 1
 0.366420 9.627176 9.993599 1
 0.590643 9.638189 10.228834 1
 0.797026 9.639455 10.436483 1
 1.000504 9.647519 10.648028 1
 1.200404 9.651418 10.851827 1
 1.400005 9.653032 11.053041 1
 1.599845 9.653549 11.253399 1
 1.799859 9.653640 11.453505 1
 1.999921 9.653622 11.653544 1
 2.199967 9.653599 11.853568 1
 2.399989 9.653590 12.053587 1
 2.599997 9.653589 12.253597 1
 2.799999 9.653589 12.453594 1
 3.000000 9.653590 12.653596 1
 3.200000 9.653590 12.853598 1
 3.400000 9.653590 13.053601 1
 3.600000 9.653590 13.253604 1
 3.800000 9.653590 13.453610 1
 4.000000 9.653590 13.653608 1
 4.200000 9.653590 13.853609 1
 4.400000 9.653590 14.053613 1
 4.600000 9.653590 14.253620 1
 4.800000 9.653590 14.453613 1
 5.000000 9.653590 14.653615 1
 5.200000 9.653590 14.853615 1
 5.400000 9.653590 15.053611 1
 5.600000 9.653590 15.253610 1
 5.800000 9.653590 15.453616 1
 6.000000 9.653590 15.653613 1
 6.200000 9.653590 15.853613 1
 6.400000 9.653590 16.053619 1
 6.600000 9.653590 16.253595 1
 6.800000 9.653590 16.453602 1
 7.000000 9.653590 16.653608 1
 7.200000 9.653590 16.853598 1
 7.400001 9.653591 17.053600 1
 7.600004 9.653597 17.253603 1
 7.800018 9.653618 17.453646 1
 8.000062 9.653674 17.653740 1
 8.200181 9.653785 17.853975 1
 8.400465 9.653945 18.054417 1
 8.601070 9.654096 18.255173 1
 8.802207 9.654192 18.456396 1
 9.003881 9.654489 18.658371 1
 9.205553 9.655162 18.860725 1
 9.406587 9.654738 19.061327 1
 9.629012 9.635622 19.264647 1
 9.638646 9.410381 19.049032 1
 9.639001 9.203550 18.842546 1
 9.646443 8.999763 18.646217 1
 9.650084 8.799567 18.449656 1
 9.651889 8.599755 18.251657 1
 9.652842 8.399879 18.052725 1
 9.653315 8.199951 17.853281 1
 9.653508 7.999991 17.653507 1
 9.653569 7.800005 17.453583 1
 9.653584 7.600005 17.253593 1
 9.653588 7.400002 17.053608 1
 9.653589 7.200001 16.853601 1
 9.653590 7.000000 16.653599 1
 0.519615 3.300000 3.819626 1
 0.519615 3.500000 4.019628 1
 0.519615 3.700000 4.219631 1
 0.519615 3.900000 4.419631 1
 0.519615 4.100000 4.619631 1
 0.519615 4.300000 4.819631 1
 0.519615 4.500000 5.019629 1
 0.519615 4.700000 5.219632 1
 0.519615 4.900000 5.419631 1
 0.519615 5.100000 5.619632 1
 0.519615 5.300000 5.819631 1
 0.519615 5.500000 6.019629 1
 0.519615 5.700000 6.219629 1
 0.519615 5.900000 6.419630 1
 0.519615 6.100000 6.619627 1
 0.519615 6.300000 6.819623 1
 0.519615 6.500000 7.019621 1
 0.519615 6.700000 7.219618 1
 0.519615 6.900000 7.419617 1
 0.519615 7.100000 7.619612 1
 0.519615 7.300002 7.819617 1
 0.519613 7.500002 8.019608 1
 0.519607 7.699993 8.219592 1
 0.519617 7.899950 8.419564 1
 0.519721 8.099868 8.619589 1
 0.520078 8.299863 8.819944 1
 0.520832 8.500332 9.021164 1
 0.521715 8.701867 9.223587 1
 0.522033 8.904896 9.426928 1
 0.520167 9.108484 9.628654 1
 0.516094 9.309842 9.825937 1
 0.502026 9.483924 9.985950 1
 0.691279 9.438541 10.129819 1
 0.905519 9.469888 10.375407 1
 1.102293 9.477044 10.579343 1
 1.300466 9.479819 10.780293 1
 1.499710 9.480616 10.980328 1
 1.699596 9.480661 11.180262 1
 1.899716 9.480534 11.380258 1
 2.099850 9.480433 11.580294 1
 2.299935 9.480390 11.780333 1
 2.499976 9.480380 11.980369 1
 2.699993 9.480382 12.180387 1
 2.899999 9.480384 12.380388 1
 3.100000 9.480385 12.580393 1
 3.300000 9.480385 12.780398 1
 3.500000 9.480385 12.980404 1
 3.700000 9.480385 13.180407 1
 3.900000 9.480385 13.380413 1
 4.100000 9.480385 13.580408 1
 4.300000 9.480385 13.780415 1
 4.500000 9.480385 13.980418 1
 4.700000 9.480385 14.180414 1
 4.900000 9.480385 14.380414 1
 5.100000 9.480385 14.580417 1
 5.300000 9.480385 14.780416 1
 5.500000 9.480385 14.980414 1
 5.700000 9.480385 15.180414 1
 5.900000 9.480385 15.380407 1
 6.100000 9.480385 15.580413 1
 6.300000 9.480385 15.780408 1
 6.500000 9.480385 15.980402 1
 6.700000 9.480385 16.180391 1
 6.900000 9.480385 16.380402 1
 7.100000 9.480385 16.580404 1
 7.300002 9.480387 16.780396 1
 7.500010 9.480394 16.980404 1
 7.700032 9.480425 17.180470 1
 7.900091 9.480510 17.380606 1
 8.100234 9.480691 17.580931 1
 8.300544 9.480989 17.781544 1
 8.501161 9.481326 17.982502 1
 8.702361 9.481443 18.183809 1
 8.904716 9.481133 18.385855 1
 9.107935 9.482063 18.590014 1
 9.309589 9.485273 18.794872 1
 9.484353 9.499175 18.983534 1
 9.437746 9.309972 18.747726 1
 9.467803 9.095390 18.563204 1
 9.473907 8.897997 18.371916 1
 9.476659 8.699073 18.175743 1
 9.478454 8.499472 17.977936 1
 9.479591 8.299726 17.779327 1
 9.480122 8.099918 17.580048 1
 9.480307 7.900009 17.380327 1
 9.480357 7.700027 17.180393 1
 9.480372 7.500017 16.980400 1
 9.480380 7.300006 16.780394 1
 9.480384 7.100001 16.580395 1
 0.692820 3.400000 4.092834 1
 0.692820 3.600000 4.292838 1
 0.692820 3.800000 4.492841 1
 0.692820 4.000000 4.692841 1
 0.692820 4.200000 4.892840 1
 0.692820 4.400000 5.092841 1
 0.692820 4.600000 5.292841 1
 0.692820 4.800000 5.492841 1
 0.692820 5.000000 5.692840 1
 0.692820 5.200000 5.892838 1
 0.692820 5.400000 6.092836 1
 0.692820 5.600000 6.292837 1
 0.692820 5.800000 6.492836 1
 0.692820 6.000000 6.692836 1
 0.692820 6.200000 6.892831 1
 0.692820 6.400000 7.092830 1
 0.692820 6.600000 7.292824 1
 0.692820 6.800000 7.492821 1
 0.692822 7.000001 7.692821 1
 0.692824 7.200005 7.892823 1
 0.692827 7.400013 8.092831 1
 0.692819 7.600022 8.292828 1
 0.692793 7.799987 8.492768 1
 0.692804 7.999825 8.692622 1
 0.693086 8.199495 8.892573 1
 0.694128 8.399289 9.093421 1
 0.696392 8.600256 9.296651 1
 0.698498 8.803503 9.502001 1
 0.699922 9.010504 9.710427 1
 0.692332 9.217192 9.909526 1
 0.837106 9.311172 10.148278 1
 1.006657 9.305138 10.311798 1
 1.201722 9.308072 10.509796 1
 1.399538 9.308581 10.708126 1
 1.599009 9.308180 10.907200 1
 1.799177 9.307693 11.106873 1
 1.999483 9.307365 11.306858 1
 2.199725 9.307206 11.506946 1
 2.399874 9.307160 11.707046 1
 2.599952 9.307162 11.907125 1
 2.799986 9.307173 12.107175 1
 2.999997 9.307178 12.307187 1
 3.200000 9.307179 12.507202 1
 3.400000 9.307179 12.707204 1
 3.600000 9.307179 12.907200 1
 3.800000 9.307179 13.107203 1
 4.000000 9.307179 13.307207 1
 4.200000 9.307179 13.507212 1
 4.400000 9.307179 13.707214 1
 4.600000 9.307179 13.907215 1
 4.800000 9.307179 14.107216 1
 5.000000 9.307179 14.307222 1
 5.200000 9.307179 14.507216 1
 5.400000 9.307179 14.707211 1
 5.600000 9.307179 14.907212 1
 5.800000 9.307179 15.107220 1
 6.000000 9.307179 15.307209 1
 6.200000 9.307179 15.507209 1
 6.400000 9.307179 15.707206 1
 6.600000 9.307179 15.907193 1
 6.800000 9.307179 16.107201 1
 7.000001 9.307179 16.307199 1
 7.200006 9.307181 16.507210 1
 7.400021 9.307189 16.707226 1
 7.600062 9.307224 16.907286 1
 7.800154 9.307332 17.107496 1
 8.000341 9.307586 17.307938 1
 8.200694 9.308045 17.508749 1
 8.401299 9.308702 17.710022 1
 8.602229 9.309296 17.911535 1
 8.803866 9.308906 18.112787 1
 9.008959 9.305711 18.314676 1
 9.215408 9.310452 18.525869 1
 9.308238 9.165133 18.473377 1
 9.299490 8.995043 18.294556 1
 9.300645 8.797984 18.098646 1
 9.302873 8.598524 17.901417 1
 9.305339 8.398994 17.704350 1
 9.306558 8.199627 17.506197 1
 9.306973 8.000001 17.306988 1
 9.307079 7.800108 17.107201 1
 9.307117 7.600085 16.907227 1
 9.307146 7.400040 16.707193 1
 9.307167 7.200013 16.507196 1
 0.692821 3.199999 3.892831 1
 0.866026 3.299998 4.166038 1
 0.866025 3.500000 4.366043 1
 0.866025 3.700000 4.566047 1
 0.866025 3.900000 4.766049 1
 0.866025 4.100000 4.966049 1
 0.866025 4.300000 5.166049 1
 0.866025 4.500000 5.366050 1
 0.866025 4.700000 5.566048 1
 0.866025 4.900000 5.766048 1
 0.866025 5.100000 5.966048 1
 0.866025 5.300000 6.166047 1
 0.866025 5.500000 6.366046 1
 0.866025 5.700000 6.566040 1
 0.866025 5.900000 6.766041 1
 0.866025 6.100000 6.966037 1
 0.866025 6.300000 7.166037 1
 0.866025 6.500000 7.366030 1
 0.866026 6.700000 7.566027 1
 0.866029 6.900002 7.766029 1
 0.866039 7.100008 7.966041 1
 0.866061 7.300032 8.166083 1
 0.866084 7.500082 8.366158 1
 0.866058 7.700128 8.566175 1
 0.865936 7.900033 8.765960 1
 0.865847 8.099525 8.965366 1
 0.866400 8.298420 9.164818 1
 0.868979 8.497291 9.366270 1
 0.875921 8.699565 9.575484 1
 0.877405 8.904689 9.782104 1
 0.891755 9.125154 10.016914 1
 1.103856 9.139504 10.243361 1
 1.299141 9.138507 10.437650 1
 1.497783 9.136682 10.634471 1
 1.697985 9.135341 10.833331 1
 1.898566 9.134526 11.033099 1
 2.099104 9.134078 11.233191 1
 2.299514 9.133916 11.433442 1
 2.499775 9.133906 11.633692 1
 2.699914 9.133938 11.833871 1
 2.899974 9.133962 12.033958 1
 3.099994 9.133972 12.233987 1
 3.299999 9.133974 12.433994 1
 3.500000 9.133975 12.633997 1
 3.700000 9.133975 12.834004 1
 3.900000 9.133975 13.034007 1
 4.100000 9.133975 13.234015 1
 4.300000 9.133975 13.434012 1
 4.500000 9.133975 13.634019 1
 4.700000 9.133975 13.834023 1
 4.900000 9.133975 14.034019 1
 5.100000 9.133975 14.234013 1
 5.300000 9.133975 14.434020 1
 5.500000 9.133975 14.634018 1
 5.700000 9.133975 14.834011 1
 5.900000 9.133975 15.034012 1
 6.100000 9.133975 15.234010 1
 6.300000 9.133975 15.434005 1
 6.500000 9.133975 15.634000 1
 6.700000 9.133975 15.833994 1
 6.900002 9.133974 16.033997 1
 7.100012 9.133974 16.234007 1
 7.300042 9.133979 16.434046 1
 7.500120 9.134007 16.634151 1
 7.700280 9.134119 16.834408 1
 7.900562 9.134421 17.034986 1
 8.101011 9.135026 17.236052 1
 8.301710 9.135969 17.437702 1
 8.502620 9.137278 17.639915 1
 8.703229 9.138531 17.841780 1
 8.902556 9.137239 18.039818 1
 9.119493 9.113961 18.233461 1
 9.124815 8.898394 18.023224 1
 9.123980 8.697309 17.821308 1
 9.130386 8.496932 17.627342 1
 9.132958 8.298738 17.431705 1
 9.133646 8.099950 17.233627 1
 9.133716 7.900363 17.034088 1
 9.133734 7.700330 16.834087 1
 9.133811 7.500182 16.634018 1
 9.133895 7.300073 16.433985 1
 1.039232 3.399995 4.439243 1
 1.039231 3.599999 4.639249 1
 1.039230 3.800000 4.839251 1
 1.039230 4.000000 5.039257 1
 1.039230 4.200000 5.239255 1
 1.039230 4.400000 5.439253 1
 1.039230 4.600000 5.639256 1
 1.039230 4.800000 5.839256 1
 1.039230 5.000000 6.039250 1
 1.039230 5.200000 6.239254 1
 1.039230 5.400000 6.439250 1
 1.039230 5.600000 6.639249 1
 1.039230 5.800000 6.839247 1
 1.039230 6.000000 7.039246 1
 1.039230 6.200000 7.239243 1
 1.039230 6.400000 7.439239 1
 1.039231 6.600001 7.639237 1
 1.039236 6.800003 7.839240 1
 1.039256 7.000013 8.039266 1
 1.039316 7.200050 8.239359 1
 1.039425 7.400152 8.439568 1
 1.039524 7.600350 8.639859 1
 1.039431 7.800554 8.839972 1
 1.038928 8.000355 9.039275 1
 1.038239 8.198991 9.237222 1
 1.038748 8.395752 9.434501 1
 1.043566 8.590389 9.633955 1
 1.072745 8.801568 9.874321 1
 1.028295 8.988511 10.016813 1
 1.197861 8.972159 10.170027 1
 1.395215 8.966660 10.361878 1
 1.595684 8.963572 10.559267 1
 1.796708 8.962122 10.758836 1
 1.997642 8.961090 10.958736 1
 2.198525 8.960625 11.159163 1
 2.399208 8.960560 11.359784 1
 2.599639 8.960635 11.560291 1
 2.799864 8.960711 11.760595 1
 2.999959 8.960751 11.960729 1
 3.199991 8.960765 12.160779 1
 3.399999 8.960769 12.360786 1
 3.600000 8.960770 12.560793 1
 3.800000 8.960770 12.760803 1
 4.000000 8.960770 12.960809 1
 4.200000 8.960770 13.160810 1
 4.400000 8.960770 13.360813 1
 4.600000 8.960770 13.560815 1
 4.800000 8.960770 13.760812 1
 5.000000 8.960770 13.960816 1
 5.200000 8.960770 14.160818 1
 5.400000 8.960770 14.360809 1
 5.600000 8.960770 14.560811 1
 5.800000 8.960770 14.760810 1
 6.000000 8.960770 14.960806 1
 6.200000 8.960770 15.160803 1
 6.400000 8.960770 15.360803 1
 6.600000 8.960770 15.560795 1
 6.800004 8.960769 15.760792 1
 7.000021 8.960766 15.960809 1
 7.200076 8.960763 16.160858 1
 7.400211 8.960773 16.361002 1
 7.600489 8.960849 16.561356 1
 7.800964 8.961123 16.762106 1
 8.001632 8.961826 16.963478 1
 8.202454 8.963049 17.165524 1
 8.403683 8.964512 17.368214 1
 8.604980 8.967175 17.572182 1
 8.804062 8.971238 17.775330 1
 8.975871 8.984391 17.960283 1
 8.927944 8.800052 17.728025 1
 8.955792 8.590317 17.546127 1
 8.960268 8.396417 17.356709 1
 8.960816 8.199830 17.160677 1
 8.960321 8.001071 16.961414 1
 8.960053 7.801050 16.761124 1
 8.960171 7.600637 16.560822 1
 8.960424 7.400289 16.360733 1
 1.039239 3.199976 4.239229 1
 8.960624 7.200102 16.160730 1
 1.212449 3.299958 4.512423 1
 1.212438 3.499990 4.712445 1
 1.212436 3.699999 4.912456 1
 1.212436 3.900000 5.112461 1
 1.212436 4.100000 5.312461 1
 1.212436 4.300000 5.512461 1
 1.212436 4.500000 5.712461 1
 1.212436 4.700000 5.912458 1
 1.212436 4.900000 6.112460 1
 1.212436 5.100000 6.312459 1
 1.212436 5.300000 6.512458 1
 1.212436 5.500000 6.712454 1
 1.212436 5.700000 6.912457 1
 1.212436 5.900000 7.112451 1
 1.212436 6.100000 7.312449 1
 1.212436 6.300000 7.512447 1
 1.212436 6.500001 7.712443 1
 1.212441 6.700006 7.912450 1
 1.212470 6.900021 8.112488 1
 1.212568 7.100065 8.312628 1
 1.212807 7.300199 8.513000 1
 1.213204 7.500542 8.713737 1
 1.213525 7.701184 8.914698 1
 1.213168 7.901902 9.115063 1
 1.211372 8.101635 9.312998 1
 1.208524 8.298485 9.507008 1
 1.207365 8.490920 9.698285 1
 1.198787 8.657331 9.856118 1
 1.289487 8.798874 10.088365 1
 1.491479 8.791008 10.282494 1
 1.693833 8.790569 10.484408 1
 1.894788 8.788484 10.683281 1
 2.096297 8.787249 10.883561 1
 2.297776 8.787024 11.084823 1
 2.498837 8.787168 11.286027 1
 2.699479 8.787353 11.486853 1
 2.899807 8.787477 11.687309 1
 3.099944 8.787536 11.887507 1
 3.299988 8.787558 12.087570 1
 3.499998 8.787563 12.287591 1
 3.700000 8.787564 12.487597 1
 3.900000 8.787564 12.687603 1
 4.100000 8.787564 12.887607 1
 4.300000 8.787564 13.087609 1
 4.500000 8.787564 13.287611 1
 4.700000 8.787564 13.487617 1
 4.900000 8.787564 13.687613 1
 5.100000 8.787564 13.887615 1
 5.300000 8.787564 14.087610 1
 5.500000 8.787564 14.287609 1
 5.700000 8.787564 14.487608 1
 5.900000 8.787564 14.687608 1
 6.100000 8.787564 14.887607 1
 6.300000 8.787564 15.087597 1
 6.500001 8.787563 15.287595 1
 6.700006 8.787560 15.487591 1
 6.900033 8.787551 15.687605 1
 7.100119 8.787532 15.887664 1
 7.300333 8.787510 16.087849 1
 7.500772 8.787518 16.288300 1
 7.701538 8.787665 16.489218 1
 7.902682 8.788234 16.690926 1
 8.103920 8.789767 16.893702 1
 8.304799 8.791993 17.096815 1
 8.507434 8.792245 17.299698 1
 8.710189 8.799296 17.509516 1
 8.800416 8.657840 17.458292 1
 8.791305 8.492050 17.283375 1
 8.790014 8.299849 17.089886 1
 8.787310 8.102899 16.890215 1
 8.785805 7.902880 16.688704 1
 8.785787 7.701822 16.487633 1
 8.786403 7.500889 16.287319 1
 8.787004 7.300355 16.087378 1
 1.212491 3.099857 4.312358 1
 1.385725 3.199780 4.585518 1
 1.385661 3.399933 4.785609 1
 1.385644 3.599984 4.985647 1
 1.385641 3.799997 5.185659 1
 1.385641 4.000000 5.385664 1
 1.385641 4.200000 5.585665 1
 1.385641 4.400000 5.785666 1
 1.385641 4.600000 5.985668 1
 1.385641 4.800000 6.185668 1
 1.385641 5.000000 6.385665 1
 1.385641 5.200000 6.585666 1
 1.385641 5.400000 6.785662 1
 1.385641 5.600000 6.985660 1
 1.385641 5.800000 7.185658 1
 1.385641 6.000000 7.385655 1
 1.385641 6.200000 7.585651 1
 1.385641 6.400003 7.785652 1
 1.385645 6.600013 7.985664 1
 1.385671 6.800036 8.185707 1
 1.385785 7.000087 8.385866 1
 1.386127 7.200213 8.586335 1
 1.386880 7.400575 8.787451 1
 1.388046 7.601508 8.989543 1
 1.388889 7.803306 9.192188 1
 1.387798 8.005581 9.393374 1
 1.382062 8.205519 9.587574 1
 1.373500 8.398758 9.772255 1
 1.381267 8.605203 9.986474 1
 1.592447 8.622175 10.214628 1
 1.789969 8.617206 10.407184 1
 1.991925 8.613585 10.605526 1
 2.194823 8.613128 10.807969 1
 2.396979 8.613378 11.010373 1
 2.598446 8.613739 11.212204 1
 2.799324 8.614036 11.413381 1
 2.999760 8.614221 11.614003 1
 3.199934 8.614312 11.814274 1
 3.399987 8.614347 12.014364 1
 3.599998 8.614357 12.214392 1
 3.800000 8.614359 12.414396 1
 4.000000 8.614359 12.614400 1
 4.200000 8.614359 12.814406 1
 4.400000 8.614359 13.014406 1
 4.600000 8.614359 13.214415 1
 4.800000 8.614359 13.414414 1
 5.000000 8.614359 13.614412 1
 5.200000 8.614359 13.814413 1
 5.400000 8.614359 14.014413 1
 5.600000 8.614359 14.214406 1
 5.800000 8.614359 14.414405 1
 6.000000 8.614359 14.614398 1
 6.200000 8.614359 14.814396 1
 6.400001 8.614357 15.014390 1
 6.600008 8.614349 15.214385 1
 6.800041 8.614325 15.414396 1
 7.000158 8.614272 15.614454 1
 7.200464 8.614189 15.814668 1
 7.401100 8.614105 16.015219 1
 7.602202 8.614091 16.216311 1
 7.803920 8.614282 16.418219 1
 8.006411 8.615168 16.621592 1
 8.208127 8.619066 16.827213 1
 8.405689 8.624035 17.029737 1
 8.617222 8.606673 17.223923 1
 8.624592 8.400598 17.025215 1
 8.616014 8.207366 16.823402 1
 8.610533 8.007153 16.617706 1
 8.609851 7.804448 16.414320 1
 8.611132 7.602213 16.213367 1
 8.612662 7.400936 16.013615 1
 8.613657 7.200366 15.814043 1
 1.558960 3.299690 4.858663 1
 1.558875 3.499902 5.058794 1
 1.558851 3.699975 5.258845 1
 1.558847 3.899996 5.458864 1
 1.558846 4.099999 5.658867 1
 1.558846 4.300000 5.858868 1
 1.558846 4.500000 6.058869 1
 1.558846 4.700000 6.258872 1
 1.558846 4.900000 6.458872 1
 1.558846 5.100000 6.658869 1
 1.558846 5.300000 6.858870 1
 1.558846 5.500000 7.058867 1
 1.558846 5.700000 7.258865 1
 1.558846 5.900000 7.458862 1
 1.558846 6.100001 7.658857 1
 1.558845 6.300006 7.858858 1
 1.558846 6.500023 8.058874 1
 1.558861 6.700066 8.258929 1
 1.558951 6.900141 8.459091 1
 1.559287 7.100255 8.659539 1
 1.560212 7.300487 8.860693 1
 1.562179 7.501207 9.063379 1
 1.565275 7.703406 9.268675 1
 1.567110 7.907842 9.474946 1
 1.565199 8.115053 9.680252 1
 1.546206 8.315174 9.861379 1
 1.515137 8.478414 9.993547 1
 1.681332 8.452022 10.133360 1
 1.883240 8.437768 10.321011 1
 2.089862 8.438546 10.528424 1
 2.293504 8.439113 10.732625 1
 2.496213 8.439630 10.935863 1
 2.698119 8.440176 11.138318 1
 2.899234 8.440637 11.339890 1
 3.099753 8.440932 11.540708 1
 3.299941 8.441079 11.741047 1
 3.499990 8.441135 11.941167 1
 3.699999 8.441151 12.141191 1
 3.900000 8.441154 12.341197 1
 4.100000 8.441154 12.541201 1
 4.300000 8.441154 12.741208 1
 4.500000 8.441154 12.941205 1
 4.700000 8.441154 13.141213 1
 4.900000 8.441154 13.341217 1
 5.100000 8.441154 13.541213 1
 5.300000 8.441154 13.741215 1
 5.500000 8.441154 13.941214 1
 5.700000 8.441154 14.141210 1
 5.900000 8.441154 14.341204 1
 6.100000 8.441154 14.541193 1
 6.300001 8.441152 14.741187 1
 6.500006 8.441138 14.941176 1
 6.700037 8.441092 15.141161 1
 6.900167 8.440974 15.341166 1
 7.100551 8.440766 15.541341 1
 7.301406 8.440505 15.741938 1
 7.502907 8.440312 15.943238 1
 7.705102 8.440290 16.145411 1
 7.908232 8.440257 16.348505 1
 8.114511 8.439873 16.554392 1
 8.316344 8.454264 16.770626 1
 8.482716 8.480515 16.963249 1
 8.451464 8.317411 16.768887 1
 8.432551 8.117146 16.549711 1
 8.430984 7.909530 16.340532 1
 8.433331 7.704561 16.137913 1
 8.436935 7.501875 15.938828 1
 8.439303 7.300807 15.740126 1
 8.440486 7.100379 15.540890 1
 1.732201 3.399587 5.131802 1
 1.732091 3.599865 5.331973 1
 1.732059 3.799964 5.532041 1
 1.732052 3.999993 5.732067 1
 1.732051 4.199999 5.932070 1
 1.732051 4.400000 6.132074 1
 1.732051 4.600000 6.332076 1
 1.732051 4.800000 6.532080 1
 1.732051 5.000000 6.732078 1
 1.732051 5.200000 6.932077 1
 1.732051 5.400000 7.132073 1
 1.732051 5.600000 7.332069 1
 1.732051 5.800000 7.532070 1
 1.732051 6.000001 7.732064 1
 1.732049 6.200009 7.932065 1
 1.732046 6.400037 8.132090 1
 1.732044 6.600110 8.332162 1
 1.732081 6.800243 8.532328 1
 1.732294 7.000411 8.732709 1
 1.733050 7.200540 8.933585 1
 1.735063 7.400663 9.135721 1
 1.739484 7.601478 9.340967 1
 1.748008 7.806480 9.554483 1
 1.749123 8.015097 9.764220 1
 1.759415 8.243134 10.002547 1
 1.984877 8.263465 10.248345 1
 2.188312 8.264641 10.452966 1
 2.392163 8.264791 10.656966 1
 2.595653 8.265425 10.861093 1
 2.798052 8.266356 11.064425 1
 2.999314 8.267144 11.266477 1
 3.199824 8.267626 11.467482 1
 3.399973 8.267846 11.667847 1
 3.600001 8.267923 11.867960 1
 3.800002 8.267944 12.067992 1
 4.000000 8.267949 12.267994 1
 4.200000 8.267949 12.468002 1
 4.400000 8.267949 12.668008 1
 4.600000 8.267949 12.868011 1
 4.800000 8.267949 13.068013 1
 5.000000 8.267949 13.268013 1
 5.200000 8.267949 13.468007 1
 5.400000 8.267949 13.668011 1
 5.600000 8.267949 13.868010 1
 5.800000 8.267949 14.068002 1
 6.000000 8.267950 14.267996 1
 6.200001 8.267948 14.467991 1
 6.400003 8.267935 14.667973 1
 6.600019 8.267870 14.867923 1
 6.800119 8.267676 15.067824 1
 7.000500 8.267258 15.267780 1
 7.201506 8.266623 15.468148 1
 7.403491 8.265994 15.669503 1
 7.606437 8.265835 15.872292 1
 7.809722 8.266250 16.075989 1
 8.012724 8.265565 16.278303 1
 8.238058 8.245457 16.483538 1
 8.248485 8.017168 16.265678 1
 8.250033 7.808044 16.058098 1
 8.259111 7.602485 15.861618 1
 8.264059 7.401207 15.665290 1
 8.266472 7.200780 15.467280 1
 1.905448 3.499480 5.404945 1
 1.905309 3.699824 5.605151 1
 1.905268 3.899951 5.805241 1
 1.905258 4.099989 6.005268 1
 1.905256 4.299998 6.205276 1
 1.905256 4.500000 6.405279 1
 1.905256 4.700000 6.605278 1
 1.905256 4.900000 6.805280 1
 1.905256 5.100000 7.005280 1
 1.905256 5.300000 7.205278 1
 1.905256 5.500000 7.405277 1
 1.905256 5.700000 7.605276 1
 1.905255 5.900002 7.805271 1
 1.905252 6.100012 8.005267 1
 1.905241 6.300050 8.205297 1
 1.905221 6.500155 8.405375 1
 1.905201 6.700376 8.605581 1
 1.905248 6.900702 8.805958 1
 1.905595 7.100961 9.006555 1
 1.906852 7.300796 9.207644 1
 1.910262 7.499844 9.410107 1
 1.918193 7.697887 9.616075 1
 1.950637 7.914224 9.864860 1
 1.905195 8.105431 10.010621 1
 2.081671 8.092043 10.173717 1
 2.285515 8.089336 10.374857 1
 2.491219 8.088972 10.580202 1
 2.695870 8.090572 10.786451 1
 2.898513 8.092359 10.990893 1
 3.099648 8.093670 11.193338 1
 3.299981 8.094345 11.394352 1
 3.500030 8.094620 11.594689 1
 3.700018 8.094711 11.794772 1
 3.900006 8.094737 11.994786 1
 4.100001 8.094743 12.194790 1
 4.300000 8.094744 12.394799 1
 4.500000 8.094744 12.594803 1
 4.700000 8.094744 12.794809 1
 4.900000 8.094744 12.994813 1
 5.100000 8.094744 13.194808 1
 5.300000 8.094744 13.394808 1
 5.500000 8.094744 13.594803 1
 5.700000 8.094745 13.794800 1
 5.900001 8.094746 13.994799 1
 6.100003 8.094748 14.194802 1
 6.300003 8.094746 14.394790 1
 6.499997 8.094692 14.594730 1
 6.700018 8.094465 14.794517 1
 6.900240 8.093843 14.994114 1
 7.101136 8.092621 15.193783 1
 7.303385 8.091028 15.394436 1
 7.507507 8.089787 15.597313 1
 7.712632 8.090658 15.803309 1
 7.916001 8.093883 16.009899 1
 8.092253 8.107602 16.199867 1
 8.047065 7.915984 15.963060 1
 8.079967 7.699140 15.779125 1
 8.088432 7.500603 15.589056 1
 8.092319 7.301176 15.393522 1
 8.093918 7.101106 15.195048 1
 2.078700 3.599380 5.678098 1
 2.078535 3.799781 5.878336 1
 2.078482 3.999936 6.078437 1
 2.078466 4.199985 6.278474 1
 2.078462 4.399997 6.478481 1
 2.078461 4.600000 6.678485 1
 2.078461 4.800000 6.878485 1
 2.078461 5.000000 7.078485 1
 2.078461 5.200000 7.278483 1
 2.078461 5.400000 7.478484 1
 2.078461 5.600000 7.678480 1
 2.078460 5.800002 7.878478 1