TITLE      =  "2D FE Unstructured grid data" 
VARIABLES = "X", "Y", "U", "Dom" 
ZONE T="P1", F=FEPOINT, N= 776 E= 1441  ET=TRIANGLE 
 5.300000 9.826795 15.126805 3
 5.400000 10.000000 15.400000 3
 5.200000 10.000000 15.200000 3
 5.500000 9.826795 15.326807 3
 5.600000 10.000000 15.600000 3
 5.700000 9.826795 15.526806 3
 5.800000 10.000000 15.800000 3
 5.900000 9.826795 15.726807 3
 6.000000 10.000000 16.000000 3
 6.100000 9.826795 15.926809 3
 6.200000 10.000000 16.200001 3
 6.300000 9.826795 16.126793 3
 6.400000 10.000000 16.400000 3
 6.500000 9.826795 16.326799 3
 6.600000 10.000000 16.600000 3
 6.700000 9.826795 16.526796 3
 6.800000 10.000000 16.799999 3
 6.900000 9.826795 16.726797 3
 7.000000 10.000000 17.000000 3
 7.100000 9.826795 16.926802 3
 7.200000 10.000000 17.200001 3
 7.300000 9.826795 17.126799 3
 7.400000 10.000000 17.400000 3
 7.500000 9.826796 17.326797 3
 7.600000 10.000000 17.600000 3
 7.700002 9.826799 17.526806 3
 7.800000 10.000000 17.799999 3
 7.900011 9.826811 17.726824 3
 8.000000 10.000000 18.000000 3
 8.100041 9.826840 17.926884 3
 8.200000 10.000000 18.200001 3
 8.300128 9.826893 18.127018 3
 8.400000 10.000000 18.400000 3
 8.500334 9.826964 18.327307 3
 8.600000 10.000000 18.600000 3
 8.700749 9.827041 18.527792 3
 8.800000 10.000000 18.799999 3
 8.901427 9.827153 18.728579 3
 9.000000 10.000000 19.000000 3
 9.102324 9.827316 18.929638 3
 9.200000 10.000000 19.200001 3
 9.303625 9.827213 19.130831 3
 9.400000 10.000000 19.400000 3
 9.507698 9.826240 19.333933 3
 9.600000 10.000000 19.600000 3
 9.707205 9.840112 19.547306 3
 9.800000 10.000000 19.799999 3
 9.868964 9.869840 19.738815 3
 10.000000 10.000000 20.000000 3
 10.000000 9.800000 19.799999 3
 9.837681 9.709203 19.546881 3
 10.000000 9.600000 19.600000 3
 9.820952 9.509867 19.330830 3
 10.000000 9.400000 19.400000 3
 9.820171 9.304181 19.124359 3
 10.000000 9.200000 19.200001 3
 9.821795 9.101304 18.923109 3
 10.000000 9.000000 19.000000 3
 9.824164 8.900148 18.724323 3
 10.000000 8.800000 18.799999 3
 9.825560 8.699957 18.525526 3
 10.000000 8.600000 18.600000 3
 9.826258 8.499968 18.326223 3
 10.000000 8.400000 18.400000 3
 9.826588 8.299988 18.126581 3
 10.000000 8.200000 18.200001 3
 9.826729 8.099998 17.926725 3
 10.000000 8.000000 18.000000 3
 9.826778 7.900001 17.726776 3
 10.000000 7.800000 17.799999 3
 9.826792 7.700001 17.526796 3
 10.000000 7.600000 17.600000 3
 9.826795 7.500000 17.326796 3
 10.000000 7.400000 17.400000 3
 9.826795 7.300000 17.126801 3
 10.000000 7.200000 17.200001 3
 9.826795 7.100000 16.926805 3
 10.000000 7.000000 17.000000 3
 9.826795 6.900000 16.726807 3
 10.000000 6.800000 16.799999 3
 9.826795 6.700000 16.526808 3
 10.000000 6.600000 16.600000 3
 9.826795 6.500000 16.326803 3
 10.000000 6.400000 16.400000 3
 9.826795 6.300000 16.126802 3
 10.000000 6.200000 16.200001 3
 9.826795 6.100000 15.926804 3
 10.000000 6.000000 16.000000 3
 9.826795 5.900000 15.726806 3
 10.000000 5.800000 15.800000 3
 9.826795 5.700000 15.526804 3
 10.000000 5.600000 15.600000 3
 9.826795 5.500000 15.326807 3
 10.000000 5.400000 15.400000 3
 9.826795 5.300000 15.126800 3
 10.000000 5.200000 15.200000 3
 9.826795 5.100000 14.926803 3
 10.000000 5.000000 15.000000 3
 9.826795 4.900000 14.726805 3
 10.000000 4.800000 14.800000 3
 5.100000 9.826795 14.926809 3
 5.200000 9.653590 14.853617 3
 5.400000 9.653590 15.053614 3
 5.600000 9.653590 15.253616 3
 5.800000 9.653590 15.453611 3
 6.000000 9.653590 15.653616 3
 6.200000 9.653590 15.853610 3
 6.400000 9.653590 16.053596 3
 6.600000 9.653590 16.253607 3
 6.800000 9.653590 16.453606 3
 7.000000 9.653590 16.653606 3
 7.200000 9.653590 16.853611 3
 7.400001 9.653591 17.053604 3
 7.600004 9.653597 17.253603 3
 7.800018 9.653618 17.453640 3
 8.000062 9.653674 17.653742 3
 8.200181 9.653785 17.853992 3
 8.400465 9.653945 18.054417 3
 8.601070 9.654096 18.255161 3
 8.802207 9.654192 18.456402 3
 9.003881 9.654489 18.658365 3
 9.205553 9.655162 18.860722 3
 9.406587 9.654738 19.061325 3
 9.629012 9.635622 19.264639 3
 9.638646 9.410381 19.049025 3
 9.639001 9.203550 18.842552 3
 9.646443 8.999763 18.646206 3
 9.650084 8.799567 18.449667 3
 9.651889 8.599755 18.251648 3
 9.652842 8.399879 18.052732 3
 9.653315 8.199951 17.853266 3
 9.653508 7.999991 17.653498 3
 9.653569 7.800005 17.453573 3
 9.653584 7.600005 17.253605 3
 9.653588 7.400002 17.053604 3
 9.653589 7.200001 16.853601 3
 9.653590 7.000000 16.653595 3
 9.653590 6.800000 16.453598 3
 9.653590 6.600000 16.253599 3
 9.653590 6.400000 16.053608 3
 9.653590 6.200000 15.853612 3
 9.653590 6.000000 15.653605 3
 9.653590 5.800000 15.453611 3
 9.653590 5.600000 15.253609 3
 9.653590 5.400000 15.053602 3
 9.653590 5.200000 14.853607 3
 9.653590 5.000000 14.653608 3
 5.000000 9.653590 14.653612 3
 5.100000 9.480385 14.580417 3
 5.300000 9.480385 14.780415 3
 5.500000 9.480385 14.980415 3
 5.700000 9.480385 15.180417 3
 5.900000 9.480385 15.380415 3
 6.100000 9.480385 15.580410 3
 6.300000 9.480385 15.780412 3
 6.500000 9.480385 15.980412 3
 6.700000 9.480385 16.180403 3
 6.900000 9.480385 16.380407 3
 7.100000 9.480385 16.580412 3
 7.300002 9.480387 16.780403 3
 7.500010 9.480394 16.980413 3
 7.700032 9.480425 17.180464 3
 7.900091 9.480510 17.380602 3
 8.100234 9.480691 17.580933 3
 8.300544 9.480989 17.781546 3
 8.501161 9.481326 17.982502 3
 8.702361 9.481443 18.183813 3
 8.904716 9.481133 18.385853 3
 9.107935 9.482063 18.589994 3
 9.309589 9.485273 18.794859 3
 9.484353 9.499175 18.983522 3
 9.437746 9.309972 18.747715 3
 9.467803 9.095390 18.563194 3
 9.473907 8.897997 18.371908 3
 9.476659 8.699073 18.175739 3
 9.478454 8.499472 17.977940 3
 9.479591 8.299726 17.779327 3
 9.480122 8.099918 17.580050 3
 9.480307 7.900009 17.380322 3
 9.480357 7.700027 17.180397 3
 9.480372 7.500017 16.980398 3
 9.480380 7.300006 16.780392 3
 9.480384 7.100001 16.580391 3
 9.480385 6.900000 16.380390 3
 9.480385 6.700000 16.180387 3
 9.480385 6.500000 15.980402 3
 9.480385 6.300000 15.780404 3
 9.480385 6.100000 15.580410 3
 9.480385 5.900000 15.380408 3
 9.480385 5.700000 15.180410 3
 9.480385 5.500000 14.980406 3
 9.480385 5.300000 14.780408 3
 9.480385 5.100000 14.580407 3
 9.480385 4.900000 14.380411 3
 5.200000 9.307179 14.507210 3
 5.400000 9.307179 14.707220 3
 5.600000 9.307179 14.907219 3
 5.800000 9.307179 15.107212 3
 6.000000 9.307179 15.307215 3
 6.200000 9.307179 15.507217 3
 6.400000 9.307179 15.707206 3
 6.600000 9.307179 15.907207 3
 6.800000 9.307179 16.107197 3
 7.000001 9.307179 16.307198 3
 7.200006 9.307181 16.507214 3
 7.400021 9.307189 16.707212 3
 7.600062 9.307224 16.907291 3
 7.800154 9.307332 17.107492 3
 8.000341 9.307586 17.307941 3
 8.200694 9.308045 17.508751 3
 8.401299 9.308702 17.710014 3
 8.602229 9.309296 17.911547 3
 8.803866 9.308906 18.112791 3
 9.008959 9.305711 18.314686 3
 9.215408 9.310452 18.525862 3
 9.308238 9.165133 18.473368 3
 9.299490 8.995043 18.294548 3
 9.300645 8.797984 18.098644 3
 9.302873 8.598524 17.901407 3
 9.305339 8.398994 17.704342 3
 9.306558 8.199627 17.506187 3
 9.306973 8.000001 17.307001 3
 9.307079 7.800108 17.107204 3
 9.307117 7.600085 16.907225 3
 9.307146 7.400040 16.707203 3
 9.307167 7.200013 16.507187 3
 9.307177 7.000003 16.307201 3
 9.307179 6.800000 16.107197 3
 9.307179 6.600000 15.907197 3
 9.307179 6.400000 15.707197 3
 9.307179 6.200000 15.507208 3
 9.307179 6.000000 15.307199 3
 9.307179 5.800000 15.107203 3
 9.307179 5.600000 14.907209 3
 9.307179 5.400000 14.707207 3
 9.307179 5.200000 14.507212 3
 9.307179 5.000000 14.307208 3
 5.300000 9.133975 14.434017 3
 5.500000 9.133975 14.634015 3
 5.700000 9.133975 14.834014 3
 5.900000 9.133975 15.034015 3
 6.100000 9.133975 15.234013 3
 6.300000 9.133975 15.434009 3
 6.500000 9.133975 15.634005 3
 6.700000 9.133975 15.833996 3
 6.900002 9.133974 16.034010 3
 7.100012 9.133974 16.234005 3
 7.300042 9.133979 16.434034 3
 7.500120 9.134007 16.634136 3
 7.700280 9.134119 16.834404 3
 7.900562 9.134421 17.034986 3
 8.101011 9.135026 17.236053 3
 8.301710 9.135969 17.437708 3
 8.502620 9.137278 17.639927 3
 8.703229 9.138531 17.841778 3
 8.902556 9.137239 18.039804 3
 9.119493 9.113961 18.233461 3
 9.124815 8.898394 18.023222 3
 9.123980 8.697309 17.821297 3
 9.130386 8.496932 17.627344 3
 9.132958 8.298738 17.431709 3
 9.133646 8.099950 17.233610 3
 9.133716 7.900363 17.034086 3
 9.133734 7.700330 16.834084 3
 9.133811 7.500182 16.634008 3
 9.133895 7.300073 16.433985 3
 9.133947 7.100021 16.233984 3
 9.133968 6.900004 16.033985 3
 9.133974 6.700001 15.833996 3
 9.133975 6.500000 15.633997 3
 9.133975 6.300000 15.433998 3
 9.133975 6.100000 15.234004 3
 9.133975 5.900000 15.034004 3
 9.133975 5.700000 14.834009 3
 9.133975 5.500000 14.634007 3
 9.133975 5.300000 14.434003 3
 9.133975 5.100000 14.234005 3
 5.100000 9.133975 14.234015 3
 5.200000 8.960770 14.160815 3
 5.400000 8.960770 14.360815 3
 5.600000 8.960770 14.560816 3
 5.800000 8.960770 14.760807 3
 6.000000 8.960770 14.960811 3
 6.200000 8.960770 15.160810 3
 6.400000 8.960770 15.360797 3
 6.600000 8.960770 15.560795 3
 6.800004 8.960769 15.760798 3
 7.000021 8.960766 15.960801 3
 7.200076 8.960763 16.160852 3
 7.400211 8.960773 16.361000 3
 7.600489 8.960849 16.561352 3
 7.800964 8.961123 16.762102 3
 8.001632 8.961826 16.963482 3
 8.202454 8.963049 17.165529 3
 8.403683 8.964512 17.368217 3
 8.604980 8.967175 17.572172 3
 8.804062 8.971238 17.775318 3
 8.975871 8.984391 17.960287 3
 8.927944 8.800052 17.728003 3
 8.955792 8.590317 17.546131 3
 8.960268 8.396417 17.356716 3
 8.960816 8.199830 17.160667 3
 8.960321 8.001071 16.961412 3
 8.960053 7.801050 16.761116 3
 8.960171 7.600637 16.560829 3
 8.960424 7.400289 16.360723 3
 8.960624 7.200102 16.160738 3
 8.960724 7.000029 15.960772 3
 8.960760 6.800006 15.760786 3
 8.960768 6.600001 15.560783 3
 8.960770 6.400000 15.360797 3
 8.960770 6.200000 15.160802 3
 8.960770 6.000000 14.960802 3
 8.960770 5.800000 14.760812 3
 8.960770 5.600000 14.560802 3
 8.960770 5.400000 14.360803 3
 8.960770 5.200000 14.160806 3
 8.960770 5.000000 13.960808 3
 5.300000 8.787564 14.087609 3
 5.500000 8.787564 14.287609 3
 5.700000 8.787564 14.487610 3
 5.900000 8.787564 14.687610 3
 6.100000 8.787564 14.887599 3
 6.300000 8.787564 15.087596 3
 6.500001 8.787563 15.287589 3
 6.700006 8.787560 15.487592 3
 6.900033 8.787551 15.687604 3
 7.100119 8.787532 15.887666 3
 7.300333 8.787510 16.087851 3
 7.500772 8.787518 16.288300 3
 7.701538 8.787665 16.489216 3
 7.902682 8.788234 16.690924 3
 8.103920 8.789767 16.893703 3
 8.304799 8.791993 17.096813 3
 8.507434 8.792245 17.299698 3
 8.710189 8.799296 17.509514 3
 8.800416 8.657840 17.458279 3
 8.791305 8.492050 17.283382 3
 8.790014 8.299849 17.089886 3
 8.787310 8.102899 16.890217 3
 8.785805 7.902880 16.688700 3
 8.785787 7.701822 16.487631 3
 8.786403 7.500889 16.287304 3
 8.787004 7.300355 16.087385 3
 8.787356 7.100121 15.887490 3
 8.787506 6.900036 15.687560 3
 8.787553 6.700009 15.487585 3
 8.787562 6.500002 15.287586 3
 8.787564 6.300000 15.087593 3
 8.787564 6.100000 14.887600 3
 8.787564 5.900000 14.687602 3
 8.787564 5.700000 14.487604 3
 8.787564 5.500000 14.287595 3
 8.787564 5.300000 14.087598 3
 8.787564 5.100000 13.887599 3
 5.400000 8.614359 14.014407 3
 5.600000 8.614359 14.214407 3
 5.800000 8.614359 14.414396 3
 6.000000 8.614359 14.614399 3
 6.200000 8.614359 14.814391 3
 6.400001 8.614357 15.014388 3
 6.600008 8.614349 15.214387 3
 6.800041 8.614325 15.414395 3
 7.000158 8.614272 15.614447 3
 7.200464 8.614189 15.814672 3
 7.401100 8.614105 16.015221 3
 7.602202 8.614091 16.216318 3
 7.803920 8.614282 16.418224 3
 8.006411 8.615168 16.621590 3
 8.208127 8.619066 16.827219 3
 8.405689 8.624035 17.029732 3
 8.617222 8.606673 17.223928 3
 8.624592 8.400598 17.025213 3
 8.616014 8.207366 16.823391 3
 8.610533 8.007153 16.617699 3
 8.609851 7.804448 16.414307 3
 8.611132 7.602213 16.213362 3
 8.612662 7.400936 16.013618 3
 8.613657 7.200366 15.814036 3
 8.614130 7.000137 15.614289 3
 8.614302 6.800049 15.414374 3
 8.614348 6.600015 15.214390 3
 8.614358 6.400003 15.014396 3
 8.614359 6.200000 14.814399 3
 8.614359 6.000000 14.614400 3
 8.614359 5.800000 14.414398 3
 8.614359 5.600000 14.214401 3
 8.614359 5.400000 14.014408 3
 8.614359 5.200000 13.814401 3
 5.200000 8.614359 13.814409 3
 8.614359 5.000000 13.614402 3
 5.300000 8.441154 13.741210 3
 5.500000 8.441154 13.941208 3
 5.700000 8.441154 14.141196 3
 5.900000 8.441154 14.341198 3
 6.100000 8.441154 14.541197 3
 6.300001 8.441152 14.741190 3
 6.500006 8.441138 14.941175 3
 6.700037 8.441092 15.141161 3
 6.900167 8.440974 15.341164 3
 7.100551 8.440766 15.541332 3
 7.301406 8.440505 15.741934 3
 7.502907 8.440312 15.943241 3
 7.705102 8.440290 16.145405 3
 7.908232 8.440257 16.348499 3
 8.114511 8.439873 16.554399 3
 8.316344 8.454264 16.770632 3
 8.482716 8.480515 16.963243 3
 8.451464 8.317411 16.768885 3
 8.432551 8.117146 16.549707 3
 8.430984 7.909530 16.340538 3
 8.433331 7.704561 16.137899 3
 8.436935 7.501875 15.938831 3
 8.439303 7.300807 15.740129 3
 8.440486 7.100379 15.540883 3
 8.440960 6.900178 15.341157 3
 8.441110 6.700073 15.141214 3
 8.441147 6.500024 14.941201 3
 8.441154 6.300005 14.741195 3
 8.441154 6.100001 14.541190 3
 8.441154 5.900000 14.341190 3
 8.441154 5.700000 14.141193 3
 8.441154 5.500000 13.941198 3
 8.441154 5.300000 13.741197 3
 8.441154 5.100000 13.541197 3
 8.441154 4.900000 13.341198 3
 5.400000 8.267949 13.668005 3
 5.600000 8.267949 13.867999 3
 5.800000 8.267949 14.067995 3
 6.000000 8.267950 14.267995 3
 6.200001 8.267948 14.467988 3
 6.400003 8.267935 14.667972 3
 6.600019 8.267870 14.867922 3
 6.800119 8.267676 15.067817 3
 7.000500 8.267258 15.267777 3
 7.201506 8.266623 15.468147 3
 7.403491 8.265994 15.669500 3
 7.606437 8.265835 15.872293 3
 7.809722 8.266250 16.075993 3
 8.012724 8.265565 16.278309 3
 8.238058 8.245457 16.483530 3
 8.248485 8.017168 16.265675 3
 8.250033 7.808044 16.058090 3
 8.259111 7.602485 15.861609 3
 8.264059 7.401207 15.665287 3
 8.266472 7.200780 15.467272 3
 8.267476 7.000492 15.267992 3
 8.267821 6.800259 15.068114 3
 8.267919 6.600107 14.868059 3
 8.267941 6.400033 14.668009 3
 8.267947 6.200007 14.467997 3
 8.267949 6.000001 14.267987 3
 8.267949 5.800000 14.067989 3
 8.267949 5.600000 13.867994 3
 8.267949 5.400000 13.668000 3
 8.267949 5.200000 13.467997 3
 8.267949 5.000000 13.268001 3
 5.500000 8.094744 13.594800 3
 5.700000 8.094745 13.794800 3
 5.900001 8.094746 13.994797 3
 6.100003 8.094748 14.194794 3
 6.300003 8.094746 14.394788 3
 6.499997 8.094692 14.594728 3
 6.700018 8.094465 14.794518 3
 6.900240 8.093843 14.994115 3
 7.101136 8.092621 15.193783 3
 7.303385 8.091028 15.394433 3
 7.507507 8.089787 15.597312 3
 7.712632 8.090658 15.803302 3
 7.916001 8.093883 16.009892 3
 8.092253 8.107602 16.199871 3
 8.047065 7.915984 15.963060 3
 8.079967 7.699140 15.779121 3
 8.088432 7.500603 15.589054 3
 8.092319 7.301176 15.393520 3
 8.093918 7.101106 15.195045 3
 8.094476 6.900727 14.995228 3
 8.094647 6.700355 14.795035 3
 8.094705 6.500129 14.594865 3
 8.094728 6.300033 14.394805 3
 8.094739 6.100005 14.194787 3
 8.094743 5.900000 13.994783 3
 8.094744 5.700000 13.794789 3
 8.094744 5.500000 13.594797 3
 8.094744 5.300000 13.394794 3
 8.094744 5.100000 13.194799 3
 5.300000 8.094744 13.394800 3
 8.094744 4.900000 12.994793 3
 5.400000 7.921539 13.321602 3
 5.600000 7.921539 13.521599 3
 5.800000 7.921542 13.721593 3
 6.000003 7.921551 13.921599 3
 6.200006 7.921570 14.121618 3
 6.399990 7.921570 14.321599 3
 6.599923 7.921422 14.521379 3
 6.799852 7.920802 14.720678 3
 7.000161 7.919147 14.919335 3
 7.201972 7.915965 15.117962 3
 7.406426 7.912672 15.319116 3
 7.615009 7.909873 15.524899 3
 7.823510 7.916173 15.739706 3
 7.919465 7.769210 15.688687 3
 7.914666 7.598018 15.512703 3
 7.919014 7.401294 15.320325 3
 7.920671 7.202161 15.122856 3
 7.921124 7.001723 14.922869 3
 7.921262 6.800952 14.722239 3
 7.921363 6.600379 14.521773 3
 7.921448 6.400101 14.321589 3
 7.921503 6.200012 14.121554 3
 7.921527 5.999997 13.921565 3
 7.921536 5.799999 13.721579 3
 7.921538 5.600000 13.521588 3
 7.921539 5.400000 13.321589 3
 7.921539 5.200000 13.121588 3
 7.921539 5.000000 12.921590 3
 5.500000 7.748334 13.248394 3
 5.699999 7.748337 13.448390 3
 5.900002 7.748352 13.648405 3
 6.100009 7.748398 13.848457 3
 6.300004 7.748482 14.048529 3
 6.499908 7.748530 14.248469 3
 6.699587 7.748238 14.447856 3
 6.899025 7.746879 14.645937 3
 7.098901 7.743095 14.842020 3
 7.302651 7.734631 15.037308 3
 7.509539 7.731553 15.241108 3
 7.732167 7.715353 15.447536 3
 7.748335 7.501046 15.249398 3
 7.748656 7.303959 15.052638 3
 7.747915 7.103678 14.851616 3
 7.747567 6.902187 14.649778 3
 7.747691 6.700889 14.448610 3
 7.747958 6.500210 14.248210 3
 7.748168 6.299989 14.048193 3
 7.748273 6.099967 13.848283 3
 7.748313 5.899987 13.648348 3
 7.748327 5.699998 13.448368 3
 7.748332 5.500000 13.248381 3
 7.748333 5.300000 13.048386 3
 7.748334 5.100000 12.848382 3
 5.300000 7.748334 13.048398 3
 5.400000 7.575129 12.975183 3
 5.599999 7.575131 13.175187 3
 5.800000 7.575148 13.375205 3
 6.000010 7.575214 13.575274 3
 6.200029 7.575380 13.775453 3
 6.399985 7.575666 13.975683 3
 6.599641 7.575929 14.175603 3
 6.798581 7.575597 14.374211 3
 6.996397 7.573352 14.569777 3
 7.192815 7.566543 14.759379 3
 7.406449 7.535078 14.941549 3
 7.595268 7.578503 15.173796 3
 7.579806 7.407219 14.987045 3
 7.575139 7.207515 14.782675 3
 7.573007 7.004591 14.577621 3
 7.573136 6.801752 14.374917 3
 7.573880 6.600250 14.174161 3
 7.574561 6.399793 13.974386 3
 7.574910 6.199821 13.774764 3
 7.575043 5.999928 13.575008 3
 7.575090 5.799988 13.375120 3
 7.575112 5.600004 13.175162 3
 7.575123 5.400003 12.975171 3
 7.575128 5.200001 12.775173 3
 5.200000 7.575129 12.775188 3
 7.575129 5.000000 12.575174 3
 5.300002 7.401923 12.701978 3
 5.500004 7.401923 12.901978 3
 5.700010 7.401937 13.101994 3
 5.900026 7.402008 13.302074 3
 6.100066 7.402225 13.502340 3
 6.300113 7.402696 13.702849 3
 6.499981 7.403486 13.903501 3
 6.699100 7.404406 14.103535 3
 6.896491 7.404594 14.301114 3
 7.091061 7.402380 14.493469 3
 7.260177 7.408800 14.669006 3
 7.404015 7.315458 14.719500 3
 7.395728 7.109600 14.505359 3
 7.396633 6.902971 14.299633 3
 7.398360 6.699879 14.098274 3
 7.400393 6.499015 13.899446 3
 7.401360 6.299318 13.700719 3
 7.401683 6.099736 13.501457 3
 7.401784 5.899960 13.301785 3
 7.401840 5.700023 13.101903 3
 7.401884 5.500021 12.901947 3
 7.401910 5.300008 12.701958 3
 7.401920 5.100001 12.501962 3
 5.400022 7.228714 12.628781 3
 5.600050 7.228718 12.828816 3
 5.800099 7.228773 13.028921 3
 6.000179 7.228998 13.229226 3
 6.200305 7.229566 13.429910 3
 6.400444 7.230638 13.631123 3
 6.600226 7.232457 13.832726 3
 6.798473 7.234999 14.033503 3
 6.993329 7.236845 14.230209 3
 7.204820 7.223364 14.428213 3
 7.218233 7.003456 14.221718 3
 7.218993 6.798610 14.017641 3
 7.225412 6.596582 13.822030 3
 7.227750 6.397942 13.625728 3
 7.228303 6.199261 13.427605 3
 7.228359 5.999932 13.228331 3
 7.228419 5.800118 13.028571 3
 7.228533 5.600099 12.828671 3
 7.228634 5.400047 12.628720 3
 7.228690 5.200013 12.428741 3
 5.200007 7.228717 12.428770 3
 7.228707 4.999991 12.228738 3
 5.300053 7.055508 12.355604 3
 5.500133 7.055498 12.555679 3
 5.700271 7.055514 12.755833 3
 5.900481 7.055684 12.956212 3
 6.100739 7.056276 13.157055 3
 6.301001 7.057511 13.358551 3
 6.501451 7.059349 13.560839 3
 6.701508 7.063075 13.764621 3
 6.898578 7.069412 13.968025 3
 7.067957 7.086519 14.154504 3
 7.022577 6.899694 13.922308 3
 7.050794 6.688996 13.739825 3
 7.055077 6.494744 13.549856 3
 7.055428 6.298376 13.353840 3
 7.054894 6.100076 13.155005 3
 7.054683 5.900492 12.955209 3
 7.054866 5.700380 12.755280 3
 7.055157 5.500192 12.555386 3
 7.055366 5.300069 12.355468 3
 7.055458 5.099999 12.155491 3
 5.100009 7.055508 12.155559 3
 5.200088 6.882298 12.082430 3
 5.400254 6.882287 12.282584 3
 5.600543 6.882260 12.482847 3
 5.801002 6.882306 12.683352 3
 6.001642 6.882720 12.884408 3
 6.202217 6.884153 13.086411 3
 6.402333 6.886526 13.288895 3
 6.604114 6.887469 13.491611 3
 6.805897 6.896061 13.701987 3
 6.895675 6.755200 13.650913 3
 6.886317 6.589180 13.475530 3
 6.884709 6.397314 13.282056 3
 6.881883 6.201017 13.082930 3
 6.880410 6.001700 12.882143 3
 6.880466 5.801201 12.681693 3
 6.881126 5.600614 12.481768 3
 6.881736 5.400246 12.282011 3
 6.882077 5.200054 12.082160 3
 6.882175 4.999899 11.882099 3
 5.300387 6.709079 12.009503 3
 5.500879 6.709036 12.209952 3
 5.701659 6.708968 12.410661 3
 5.902831 6.709016 12.611888 3
 6.104554 6.709742 12.814331 3
 6.305386 6.713605 13.019026 3
 6.502120 6.718897 13.221049 3
 6.712865 6.702562 13.415463 3
 6.719636 6.496871 13.216539 3
 6.710800 6.304371 13.015200 3
 6.705265 6.105090 12.810382 3
 6.704589 5.903231 12.607848 3
 6.705859 5.701594 12.407477 3
 6.707357 5.500651 12.208035 3
 6.708319 5.300206 12.008548 3
 6.708727 5.099927 11.808675 3
 5.100086 6.709057 11.809180 3
 6.708698 4.899539 11.608258 3
 5.200480 6.535843 11.736357 3
 5.401215 6.535832 11.937081 3
 5.602376 6.535713 12.138120 3
 5.804008 6.535583 12.339622 3
 6.006344 6.535356 12.541734 3
 6.211658 6.534869 12.746556 3
 6.412555 6.549319 12.961906 3
 6.578311 6.575870 13.154212 3
 6.546807 6.413328 12.960168 3
 6.527711 6.214071 12.741812 3
 6.525961 6.007545 12.533533 3
 6.528104 5.803442 12.331567 3
 6.531502 5.601285 12.132810 3
 6.533750 5.400454 11.934228 3
 6.534873 5.200035 11.734929 3
 6.535142 4.999551 11.534712 3
 4.999966 6.535686 11.535684 3
 5.100480 6.362470 11.462977 3
 5.301454 6.362638 11.664117 3
 5.503009 6.362456 11.865488 3
 5.705275 6.362261 12.067558 3
 5.907762 6.362350 12.270139 3
 6.109875 6.361391 12.471295 3
 6.334133 6.341391 12.675557 3
 6.344007 6.114423 12.458459 3
 6.344969 5.906408 12.251397 3
 6.353383 5.701550 12.054955 3
 6.357897 5.500551 11.858466 3
 6.360236 5.300147 11.660398 3
 6.361205 5.099681 11.460899 3
 4.899611 6.361925 11.261567 3
 6.360919 4.898767 11.259699 3
 5.000427 6.188671 11.189116 3
 5.201601 6.189420 11.391045 3
 5.403275 6.189375 11.592669 3
 5.606243 6.188517 11.794784 3
 5.810252 6.188671 11.998943 3
 6.012845 6.191037 12.203902 3
 6.188544 6.204307 12.392873 3
 6.142501 6.014085 12.156608 3
 6.173831 5.798148 11.971996 3
 6.180956 5.599769 11.780739 3
 6.184464 5.400049 11.584524 3
 6.186517 5.199762 11.386290 3
 6.187013 4.999155 11.186177 3
 4.798958 6.187218 10.986202 3
 6.185367 4.797679 10.983050 3
 4.900598 6.013912 10.914530 3
 5.101937 6.015899 11.117851 3
 5.303375 6.016687 11.320082 3
 5.505675 6.015846 11.521542 3
 5.711651 6.011814 11.723476 3
 5.919065 6.015594 11.934675 3
 6.013193 5.868949 11.882159 3
 6.005376 5.697934 11.703324 3
 6.007524 5.499849 11.507385 3
 6.010387 5.299516 11.309910 3
 6.012669 5.099244 11.111922 3
 6.011981 4.898929 10.910918 3
 6.007491 4.697156 10.704651 3
 5.002956 5.841684 10.844657 3
 5.204089 5.843764 11.047867 3
 5.405334 5.844797 11.250148 3
 5.605592 5.842818 11.448421 3
 5.823790 5.818390 11.642193 3
 5.830368 5.601433 11.431813 3
 5.830495 5.399161 11.229667 3
 5.837409 5.197886 11.035302 3
 5.839147 4.999345 10.838499 3
 5.835851 4.800506 10.636364 3
 4.801918 5.837666 10.639599 3
 4.905374 5.667368 10.572748 3
 5.105484 5.669804 10.775300 3
 5.307206 5.672304 10.979521 3
 5.507359 5.675951 11.183320 3
 5.680120 5.688616 11.368739 3
 5.632827 5.502974 11.135809 3
 5.661818 5.291677 10.953499 3
 5.666818 5.097191 10.764013 3
 5.666323 4.901888 10.568215 3
 5.659755 4.707521 10.367283 3
 5.006308 5.496612 10.502922 3
 5.208943 5.495486 10.704438 3
 5.413343 5.502380 10.915732 3
 5.504851 5.359362 10.864220 3
 5.496418 5.191912 10.688334 3
 5.497002 4.999701 10.496706 3
 5.495658 4.807553 10.303216 3
 4.809714 5.495664 10.305383 3
 4.906869 5.326146 10.233020 3
 5.103649 5.323884 10.427536 3
 5.319131 5.306384 10.625521 3
 5.327497 5.096061 10.423559 3
 5.327126 4.903711 10.230842 3
 4.693971 5.318064 10.012046 3
 5.317714 4.693514 10.011228 3
 4.827077 5.178535 10.005616 3
 4.676157 5.103004 9.779169 3
 5.002749 5.143690 10.146441 3
 5.179523 5.174121 10.353642 3
 5.145241 5.000305 10.145553 3
 5.178312 4.826221 10.004535 3
 4.857446 5.002383 9.859835 3
 5.000582 4.858382 9.858967 3
 5.001305 5.000966 10.002275 3
 1 2 3 
 4 5 2 
 6 7 5 
 8 9 7 
 10 11 9 
 12 13 11 
 14 15 13 
 16 17 15 
 18 19 17 
 20 21 19 
 22 23 21 
 24 25 23 
 26 27 25 
 28 29 27 
 30 31 29 
 32 33 31 
 34 35 33 
 36 37 35 
 38 39 37 
 40 41 39 
 42 43 41 
 44 45 43 
 46 47 45 
 47 48 49 
 48 50 49 
 51 52 50 
 52 53 54 
 54 55 56 
 56 57 58 
 58 59 60 
 60 61 62 
 62 63 64 
 64 65 66 
 66 67 68 
 68 69 70 
 70 71 72 
 72 73 74 
 74 75 76 
 76 77 78 
 78 79 80 
 80 81 82 
 82 83 84 
 84 85 86 
 86 87 88 
 88 89 90 
 90 91 92 
 92 93 94 
 94 95 96 
 96 97 98 
 98 99 100 
 101 1 3 
 1 4 2 
 4 6 5 
 6 8 7 
 8 10 9 
 10 12 11 
 12 14 13 
 14 16 15 
 16 18 17 
 18 20 19 
 20 22 21 
 22 24 23 
 24 26 25 
 26 28 27 
 28 30 29 
 30 32 31 
 32 34 33 
 34 36 35 
 36 38 37 
 38 40 39 
 40 42 41 
 42 44 43 
 44 46 45 
 47 46 48 
 48 51 50 
 53 52 51 
 53 55 54 
 55 57 56 
 57 59 58 
 59 61 60 
 61 63 62 
 63 65 64 
 65 67 66 
 67 69 68 
 69 71 70 
 71 73 72 
 73 75 74 
 75 77 76 
 77 79 78 
 79 81 80 
 81 83 82 
 83 85 84 
 85 87 86 
 87 89 88 
 89 91 90 
 91 93 92 
 93 95 94 
 95 97 96 
 97 99 98 
 1 101 102 
 4 1 103 
 6 4 104 
 8 6 105 
 10 8 106 
 12 10 107 
 14 12 108 
 16 14 109 
 18 16 110 
 20 18 111 
 22 20 112 
 24 22 113 
 26 24 114 
 28 26 115 
 30 28 116 
 32 30 117 
 34 32 118 
 36 34 119 
 38 36 120 
 40 38 121 
 42 40 122 
 44 42 123 
 44 124 46 
 51 48 46 
 53 51 124 
 53 125 55 
 55 126 57 
 57 127 59 
 59 128 61 
 61 129 63 
 130 65 63 
 65 131 67 
 67 132 69 
 69 133 71 
 71 134 73 
 73 135 75 
 75 136 77 
 77 137 79 
 79 138 81 
 81 139 83 
 83 140 85 
 85 141 87 
 87 142 89 
 89 143 91 
 91 144 93 
 93 145 95 
 95 146 97 
 97 147 99 
 148 102 101 
 103 1 102 
 104 4 103 
 105 6 104 
 106 8 105 
 107 10 106 
 108 12 107 
 109 14 108 
 110 16 109 
 111 18 110 
 112 20 111 
 113 22 112 
 114 24 113 
 115 26 114 
 116 28 115 
 117 30 116 
 118 32 117 
 119 34 118 
 120 36 119 
 121 38 120 
 122 40 121 
 123 42 122 
 44 123 124 
 124 51 46 
 53 124 125 
 125 126 55 
 126 127 57 
 127 128 59 
 128 129 61 
 129 130 63 
 131 65 130 
 131 132 67 
 132 133 69 
 133 134 71 
 134 135 73 
 135 136 75 
 136 137 77 
 137 138 79 
 138 139 81 
 139 140 83 
 140 141 85 
 141 142 87 
 142 143 89 
 143 144 91 
 144 145 93 
 145 146 95 
 146 147 97 
 102 148 149 
 103 102 150 
 104 103 151 
 152 105 104 
 106 105 153 
 107 106 154 
 108 107 155 
 109 108 156 
 110 109 157 
 111 110 158 
 112 111 159 
 113 112 160 
 114 113 161 
 115 114 162 
 115 163 116 
 117 116 164 
 118 117 165 
 119 118 166 
 120 119 167 
 121 120 168 
 169 122 121 
 123 122 170 
 171 124 123 
 125 124 171 
 125 172 126 
 126 173 127 
 127 174 128 
 128 175 129 
 129 176 130 
 130 177 131 
 131 178 132 
 179 133 132 
 133 180 134 
 134 181 135 
 135 182 136 
 136 183 137 
 137 184 138 
 138 185 139 
 139 186 140 
 140 187 141 
 141 188 142 
 142 189 143 
 143 190 144 
 144 191 145 
 145 192 146 
 146 193 147 
 102 149 150 
 151 103 150 
 151 152 104 
 153 105 152 
 154 106 153 
 155 107 154 
 156 108 155 
 157 109 156 
 158 110 157 
 159 111 158 
 160 112 159 
 161 113 160 
 162 114 161 
 115 162 163 
 164 116 163 
 165 117 164 
 166 118 165 
 167 119 166 
 168 120 167 
 168 169 121 
 170 122 169 
 171 123 170 
 125 171 172 
 172 173 126 
 173 174 127 
 174 175 128 
 175 176 129 
 176 177 130 
 177 178 131 
 178 179 132 
 180 133 179 
 180 181 134 
 181 182 135 
 182 183 136 
 183 184 137 
 184 185 138 
 185 186 139 
 186 187 140 
 187 188 141 
 188 189 142 
 189 190 143 
 190 191 144 
 191 192 145 
 192 193 146 
 193 194 147 
 150 149 195 
 151 150 196 
 197 152 151 
 153 152 198 
 154 153 199 
 155 154 200 
 156 155 201 
 157 156 202 
 158 157 203 
 159 158 204 
 160 159 205 
 161 160 206 
 162 161 207 
 163 162 208 
 164 163 209 
 165 164 210 
 166 165 211 
 167 166 212 
 168 167 213 
 169 168 214 
 215 170 169 
 172 171 170 
 172 216 173 
 173 217 174 
 218 175 174 
 175 219 176 
 176 220 177 
 177 221 178 
 222 179 178 
 179 223 180 
 180 224 181 
 225 182 181 
 182 226 183 
 227 184 183 
 184 228 185 
 185 229 186 
 186 230 187 
 187 231 188 
 188 232 189 
 233 190 189 
 190 234 191 
 191 235 192 
 192 236 193 
 193 237 194 
 150 195 196 
 196 197 151 
 198 152 197 
 199 153 198 
 200 154 199 
 201 155 200 
 202 156 201 
 203 157 202 
 204 158 203 
 205 159 204 
 206 160 205 
 207 161 206 
 208 162 207 
 209 163 208 
 210 164 209 
 211 165 210 
 212 166 211 
 213 167 212 
 214 168 213 
 214 215 169 
 172 170 215 
 216 217 173 
 172 215 216 
 217 218 174 
 219 175 218 
 219 220 176 
 220 221 177 
 221 222 178 
 223 179 222 
 223 224 180 
 224 225 181 
 226 182 225 
 226 227 183 
 228 184 227 
 228 229 185 
 229 230 186 
 230 231 187 
 231 232 188 
 232 233 189 
 234 190 233 
 234 235 191 
 235 236 192 
 236 237 193 
 238 196 195 
 239 197 196 
 240 198 197 
 199 198 241 
 200 199 242 
 201 200 243 
 202 201 244 
 202 245 203 
 204 203 246 
 205 204 247 
 206 205 248 
 207 206 249 
 208 207 250 
 209 208 251 
 210 209 252 
 211 210 253 
 211 254 212 
 212 255 213 
 214 213 256 
 215 214 257 
 257 217 216 
 215 257 216 
 217 258 218 
 259 219 218 
 260 220 219 
 220 261 221 
 221 262 222 
 222 263 223 
 223 264 224 
 265 225 224 
 225 266 226 
 226 267 227 
 268 228 227 
 269 229 228 
 229 270 230 
 271 231 230 
 231 272 232 
 232 273 233 
 233 274 234 
 234 275 235 
 235 276 236 
 236 277 237 
 238 195 278 
 239 196 238 
 239 240 197 
 241 198 240 
 242 199 241 
 243 200 242 
 244 201 243 
 202 244 245 
 246 203 245 
 247 204 246 
 248 205 247 
 249 206 248 
 250 207 249 
 251 208 250 
 252 209 251 
 253 210 252 
 211 253 254 
 212 254 255 
 256 213 255 
 257 214 256 
 258 217 257 
 258 259 218 
 260 219 259 
 261 220 260 
 261 262 221 
 262 263 222 
 263 264 223 
 264 265 224 
 266 225 265 
 266 267 226 
 267 268 227 