TITLE      =  "2D FE Unstructured grid data" 
VARIABLES = "X", "Y", "U", "Dom" 
ZONE T="P1", F=FEPOINT, N= 775 E= 1440  ET=TRIANGLE 
 0.000000 5.200000 5.200000 2
 0.000000 5.000000 5.000000 2
 0.173205 5.100000 5.273207 2
 0.173205 5.300000 5.473209 2
 0.000000 5.400000 5.400000 2
 0.173205 5.500000 5.673210 2
 0.000000 5.600000 5.600000 2
 0.173205 5.700000 5.873212 2
 0.000000 5.800000 5.800000 2
 0.173205 5.900000 6.073209 2
 0.000000 6.000000 6.000000 2
 0.173205 6.100000 6.273209 2
 0.000000 6.200000 6.200000 2
 0.173205 6.300000 6.473209 2
 0.000000 6.400000 6.400000 2
 0.173205 6.500000 6.673207 2
 0.000000 6.600000 6.600000 2
 0.173205 6.700000 6.873209 2
 0.000000 6.800000 6.800000 2
 0.173205 6.900000 7.073204 2
 0.000000 7.000000 7.000000 2
 0.173205 7.100000 7.273206 2
 0.000000 7.200000 7.200000 2
 0.173205 7.300000 7.473206 2
 0.000000 7.400000 7.400000 2
 0.173205 7.500000 7.673202 2
 0.000000 7.600000 7.600000 2
 0.173205 7.699999 7.873201 2
 0.000000 7.800000 7.800000 2
 0.173210 7.899996 8.073200 2
 0.000000 8.000000 8.000000 2
 0.173231 8.100002 8.273233 2
 0.000000 8.200000 8.200000 2
 0.173282 8.300057 8.473338 2
 0.000000 8.400000 8.400000 2
 0.173355 8.500252 8.673609 2
 0.000000 8.600000 8.600000 2
 0.173396 8.700693 8.874088 2
 0.000000 8.800000 8.800000 2
 0.173305 8.901406 9.074710 2
 0.000000 9.000000 9.000000 2
 0.173112 9.102262 9.275378 2
 0.000000 9.200000 9.200000 2
 0.173339 9.303297 9.476638 2
 0.000000 9.400000 9.400000 2
 0.175066 9.506494 9.681560 2
 0.000000 9.600000 9.600000 2
 0.164370 9.702746 9.867122 2
 0.000000 9.800000 9.800000 2
 0.087359 9.912414 9.999772 2
 0.000000 10.000000 10.000000 2
 0.200000 10.000000 10.200000 2
 0.295277 9.833226 10.128504 2
 0.400000 10.000000 10.400000 2
 0.491419 9.819784 10.311202 2
 0.600000 10.000000 10.600000 2
 0.696277 9.819970 10.516252 2
 0.800000 10.000000 10.800000 2
 0.898880 9.822006 10.720881 2
 1.000000 10.000000 11.000000 2
 1.099898 9.824569 10.924470 2
 1.200000 10.000000 11.200000 2
 1.300002 9.825985 11.125983 2
 1.400000 10.000000 11.400000 2
 1.499953 9.826576 11.326530 2
 1.600000 10.000000 11.600000 2
 1.699943 9.826763 11.526705 2
 1.800000 10.000000 11.800000 2
 1.899964 9.826800 11.726768 2
 2.000000 10.000000 12.000000 2
 2.099984 9.826799 11.926779 2
 2.200000 10.000000 12.200000 2
 2.299995 9.826796 12.126794 2
 2.400000 10.000000 12.400000 2
 2.499999 9.826795 12.326796 2
 2.600000 10.000000 12.600000 2
 2.700000 9.826795 12.526797 2
 2.800000 10.000000 12.800000 2
 2.900000 9.826795 12.726802 2
 3.000000 10.000000 13.000000 2
 3.100000 9.826795 12.926799 2
 3.200000 10.000000 13.200000 2
 3.300000 9.826795 13.126800 2
 3.400000 10.000000 13.400000 2
 3.500000 9.826795 13.326797 2
 3.600000 10.000000 13.600000 2
 3.700000 9.826795 13.526804 2
 3.800000 10.000000 13.800000 2
 3.900000 9.826795 13.726802 2
 4.000000 10.000000 14.000000 2
 4.100000 9.826795 13.926808 2
 4.200000 10.000000 14.200000 2
 4.300000 9.826795 14.126806 2
 4.400000 10.000000 14.400000 2
 4.500000 9.826795 14.326814 2
 4.600000 10.000000 14.600000 2
 4.700000 9.826795 14.526806 2
 4.800000 10.000000 14.800000 2
 4.900000 9.826795 14.726806 2
 5.000000 10.000000 15.000000 2
 5.200000 10.000000 15.200000 2
 5.100000 9.826795 14.926809 2
 0.149413 9.849668 9.999080 2
 0.346410 5.200000 5.546416 2
 0.346410 5.400000 5.746418 2
 0.346410 5.600000 5.946418 2
 0.346410 5.800000 6.146419 2
 0.346410 6.000000 6.346416 2
 0.346410 6.200000 6.546416 2
 0.346410 6.400000 6.746414 2
 0.346410 6.600000 6.946412 2
 0.346410 6.800000 7.146411 2
 0.346410 7.000000 7.346408 2
 0.346410 7.200000 7.546407 2
 0.346410 7.400000 7.746405 2
 0.346408 7.599998 7.946399 2
 0.346411 7.799990 8.146397 2
 0.346439 7.999973 8.346403 2
 0.346539 8.199990 8.546528 2
 0.346761 8.400186 8.746943 2
 0.347051 8.600819 8.947869 2
 0.347170 8.802126 9.149297 2
 0.346724 9.003945 9.350668 2
 0.345804 9.205498 9.551307 2
 0.346365 9.405966 9.752333 2
 0.366420 9.627176 9.993596 2
 0.590643 9.638189 10.228839 2
 0.797026 9.639455 10.436481 2
 1.000504 9.647519 10.648024 2
 1.200404 9.651418 10.851826 2
 1.400005 9.653032 11.053043 2
 1.599845 9.653549 11.253395 2
 1.799859 9.653640 11.453502 2
 1.999921 9.653622 11.653552 2
 2.199967 9.653599 11.853574 2
 2.399989 9.653590 12.053593 2
 2.599997 9.653589 12.253593 2
 2.799999 9.653589 12.453596 2
 3.000000 9.653590 12.653594 2
 3.200000 9.653590 12.853596 2
 3.400000 9.653590 13.053600 2
 3.600000 9.653590 13.253604 2
 3.800000 9.653590 13.453608 2
 4.000000 9.653590 13.653611 2
 4.200000 9.653590 13.853615 2
 4.400000 9.653590 14.053611 2
 4.600000 9.653590 14.253613 2
 4.800000 9.653590 14.453612 2
 5.000000 9.653590 14.653612 2
 0.346410 5.000000 5.346419 2
 0.519615 5.100000 5.619627 2
 0.519615 5.300000 5.819624 2
 0.519615 5.500000 6.019627 2
 0.519615 5.700000 6.219627 2
 0.519615 5.900000 6.419627 2
 0.519615 6.100000 6.619625 2
 0.519615 6.300000 6.819622 2
 0.519615 6.500000 7.019615 2
 0.519615 6.700000 7.219613 2
 0.519615 6.900000 7.419613 2
 0.519615 7.100000 7.619609 2
 0.519615 7.300002 7.819609 2
 0.519613 7.500002 8.019605 2
 0.519607 7.699993 8.219589 2
 0.519617 7.899950 8.419555 2
 0.519721 8.099868 8.619577 2
 0.520078 8.299863 8.819941 2
 0.520832 8.500332 9.021160 2
 0.521715 8.701867 9.223577 2
 0.522033 8.904896 9.426929 2
 0.520167 9.108484 9.628651 2
 0.516094 9.309842 9.825941 2
 0.502026 9.483924 9.985951 2
 0.691279 9.438541 10.129822 2
 0.905519 9.469888 10.375402 2
 1.102293 9.477044 10.579336 2
 1.300466 9.479819 10.780283 2
 1.499710 9.480616 10.980330 2
 1.699596 9.480661 11.180262 2
 1.899716 9.480534 11.380260 2
 2.099850 9.480433 11.580292 2
 2.299935 9.480390 11.780328 2
 2.499976 9.480380 11.980366 2
 2.699993 9.480382 12.180384 2
 2.899999 9.480384 12.380394 2
 3.100000 9.480385 12.580396 2
 3.300000 9.480385 12.780398 2
 3.500000 9.480385 12.980405 2
 3.700000 9.480385 13.180404 2
 3.900000 9.480385 13.380410 2
 4.100000 9.480385 13.580414 2
 4.300000 9.480385 13.780414 2
 4.500000 9.480385 13.980418 2
 4.700000 9.480385 14.180417 2
 4.900000 9.480385 14.380415 2
 5.100000 9.480385 14.580417 2
 0.692820 5.200000 5.892834 2
 0.692820 5.400000 6.092836 2
 0.692820 5.600000 6.292837 2
 0.692820 5.800000 6.492833 2
 0.692820 6.000000 6.692832 2
 0.692820 6.200000 6.892826 2
 0.692820 6.400000 7.092823 2
 0.692820 6.600000 7.292818 2
 0.692820 6.800000 7.492817 2
 0.692822 7.000001 7.692814 2
 0.692824 7.200005 7.892818 2
 0.692827 7.400013 8.092832 2
 0.692819 7.600022 8.292829 2
 0.692793 7.799987 8.492766 2
 0.692804 7.999825 8.692624 2
 0.693086 8.199495 8.892574 2
 0.694128 8.399289 9.093413 2
 0.696392 8.600256 9.296644 2
 0.698498 8.803503 9.501997 2
 0.699922 9.010504 9.710425 2
 0.692332 9.217192 9.909524 2
 0.837106 9.311172 10.148280 2
 1.006657 9.305138 10.311790 2
 1.201722 9.308072 10.509790 2
 1.399538 9.308581 10.708120 2
 1.599009 9.308180 10.907195 2
 1.799177 9.307693 11.106876 2
 1.999483 9.307365 11.306853 2
 2.199725 9.307206 11.506940 2
 2.399874 9.307160 11.707043 2
 2.599952 9.307162 11.907125 2
 2.799986 9.307173 12.107168 2
 2.999997 9.307178 12.307192 2
 3.200000 9.307179 12.507198 2
 3.400000 9.307179 12.707200 2
 3.600000 9.307179 12.907205 2
 3.800000 9.307179 13.107209 2
 4.000000 9.307179 13.307212 2
 4.200000 9.307179 13.507215 2
 4.400000 9.307179 13.707217 2
 4.600000 9.307179 13.907216 2
 4.800000 9.307179 14.107218 2
 5.000000 9.307179 14.307221 2
 0.692820 5.000000 5.692835 2
 5.200000 9.307179 14.507210 2
 0.866025 5.100000 5.966043 2
 0.866025 5.300000 6.166045 2
 0.866025 5.500000 6.366043 2
 0.866025 5.700000 6.566043 2
 0.866025 5.900000 6.766036 2
 0.866025 6.100000 6.966037 2
 0.866025 6.300000 7.166032 2
 0.866025 6.500000 7.366026 2
 0.866026 6.700000 7.566022 2
 0.866029 6.900002 7.766022 2
 0.866039 7.100008 7.966038 2
 0.866061 7.300032 8.166075 2
 0.866084 7.500082 8.366149 2
 0.866058 7.700128 8.566170 2
 0.865936 7.900033 8.765952 2
 0.865847 8.099525 8.965358 2
 0.866400 8.298420 9.164809 2
 0.868979 8.497291 9.366268 2
 0.875921 8.699565 9.575486 2
 0.877405 8.904689 9.782092 2
 0.891755 9.125154 10.016909 2
 1.103856 9.139504 10.243361 2
 1.299141 9.138507 10.437651 2
 1.497783 9.136682 10.634470 2
 1.697985 9.135341 10.833332 2
 1.898566 9.134526 11.033102 2
 2.099104 9.134078 11.233197 2
 2.299514 9.133916 11.433440 2
 2.499775 9.133906 11.633695 2
 2.699914 9.133938 11.833872 2
 2.899974 9.133962 12.033950 2
 3.099994 9.133972 12.233989 2
 3.299999 9.133974 12.433996 2
 3.500000 9.133975 12.633998 2
 3.700000 9.133975 12.834006 2
 3.900000 9.133975 13.034008 2
 4.100000 9.133975 13.234015 2
 4.300000 9.133975 13.434016 2
 4.500000 9.133975 13.634018 2
 4.700000 9.133975 13.834020 2
 4.900000 9.133975 14.034015 2
 5.100000 9.133975 14.234015 2
 1.039230 5.200000 6.239254 2
 1.039230 5.400000 6.439248 2
 1.039230 5.600000 6.639250 2
 1.039230 5.800000 6.839244 2
 1.039230 6.000000 7.039243 2
 1.039230 6.200000 7.239241 2
 1.039230 6.400000 7.439233 2
 1.039231 6.600001 7.639229 2
 1.039236 6.800003 7.839233 2
 1.039256 7.000013 8.039258 2
 1.039316 7.200050 8.239349 2
 1.039425 7.400152 8.439564 2
 1.039524 7.600350 8.639858 2
 1.039431 7.800554 8.839967 2
 1.038928 8.000355 9.039268 2
 1.038239 8.198991 9.237216 2
 1.038748 8.395752 9.434497 2
 1.043566 8.590389 9.633950 2
 1.072745 8.801568 9.874315 2
 1.028295 8.988511 10.016806 2
 1.197861 8.972159 10.170028 2
 1.395215 8.966660 10.361882 2
 1.595684 8.963572 10.559260 2
 1.796708 8.962122 10.758835 2
 1.997642 8.961090 10.958744 2
 2.198525 8.960625 11.159162 2
 2.399208 8.960560 11.359783 2
 2.599639 8.960635 11.560295 2
 2.799864 8.960711 11.760591 2
 2.999959 8.960751 11.960733 2
 3.199991 8.960765 12.160777 2
 3.399999 8.960769 12.360795 2
 3.600000 8.960770 12.560798 2
 3.800000 8.960770 12.760802 2
 4.000000 8.960770 12.960811 2
 4.200000 8.960770 13.160811 2
 4.400000 8.960770 13.360816 2
 4.600000 8.960770 13.560811 2
 4.800000 8.960770 13.760813 2
 5.000000 8.960770 13.960816 2
 1.039230 5.000000 6.039250 2
 5.200000 8.960770 14.160815 2
 1.212436 5.100000 6.312463 2
 1.212436 5.300000 6.512460 2
 1.212436 5.500000 6.712456 2
 1.212436 5.700000 6.912454 2
 1.212436 5.900000 7.112451 2
 1.212436 6.100000 7.312445 2
 1.212436 6.300000 7.512442 2
 1.212436 6.500001 7.712437 2
 1.212441 6.700006 7.912441 2
 1.212470 6.900021 8.112483 2
 1.212568 7.100065 8.312622 2
 1.212807 7.300199 8.512988 2
 1.213204 7.500542 8.713725 2
 1.213525 7.701184 8.914689 2
 1.213168 7.901902 9.115055 2
 1.211372 8.101635 9.312996 2
 1.208524 8.298485 9.506999 2
 1.207365 8.490920 9.698278 2
 1.198787 8.657331 9.856117 2
 1.289487 8.798874 10.088362 2
 1.491479 8.791008 10.282487 2
 1.693833 8.790569 10.484406 2
 1.894788 8.788484 10.683273 2
 2.096297 8.787249 10.883557 2
 2.297776 8.787024 11.084813 2
 2.498837 8.787168 11.286020 2
 2.699479 8.787353 11.486846 2
 2.899807 8.787477 11.687307 2
 3.099944 8.787536 11.887504 2
 3.299988 8.787558 12.087572 2
 3.499998 8.787563 12.287588 2
 3.700000 8.787564 12.487593 2
 3.900000 8.787564 12.687593 2
 4.100000 8.787564 12.887606 2
 4.300000 8.787564 13.087605 2
 4.500000 8.787564 13.287614 2
 4.700000 8.787564 13.487613 2
 4.900000 8.787564 13.687613 2
 5.100000 8.787564 13.887614 2
 5.300000 8.787564 14.087609 2
 1.385641 5.200000 6.585662 2
 1.385641 5.400000 6.785661 2
 1.385641 5.600000 6.985662 2
 1.385641 5.800000 7.185658 2
 1.385641 6.000000 7.385655 2
 1.385641 6.200000 7.585649 2
 1.385641 6.400003 7.785649 2
 1.385645 6.600013 7.985653 2
 1.385671 6.800036 8.185699 2
 1.385785 7.000087 8.385863 2
 1.386127 7.200213 8.586327 2
 1.386880 7.400575 8.787443 2
 1.388046 7.601508 8.989542 2
 1.388889 7.803306 9.192179 2
 1.387798 8.005581 9.393362 2
 1.382062 8.205519 9.587577 2
 1.373500 8.398758 9.772255 2
 1.381267 8.605203 9.986469 2
 1.592447 8.622175 10.214629 2
 1.789969 8.617206 10.407179 2
 1.991925 8.613585 10.605516 2
 2.194823 8.613128 10.807962 2
 2.396979 8.613378 11.010373 2
 2.598446 8.613739 11.212202 2
 2.799324 8.614036 11.413377 2
 2.999760 8.614221 11.613999 2
 3.199934 8.614312 11.814265 2
 3.399987 8.614347 12.014359 2
 3.599998 8.614357 12.214390 2
 3.800000 8.614359 12.414392 2
 4.000000 8.614359 12.614395 2
 4.200000 8.614359 12.814403 2
 4.400000 8.614359 13.014399 2
 4.600000 8.614359 13.214409 2
 4.800000 8.614359 13.414412 2
 5.000000 8.614359 13.614413 2
 5.200000 8.614359 13.814409 2
 1.558846 5.300000 6.858867 2
 1.558846 5.500000 7.058867 2
 1.558846 5.700000 7.258863 2
 1.558846 5.900000 7.458858 2
 1.558846 6.100001 7.658858 2
 1.558845 6.300006 7.858855 2
 1.558846 6.500023 8.058867 2
 1.558861 6.700066 8.258922 2
 1.558951 6.900141 8.459084 2
 1.559287 7.100255 8.659530 2
 1.560212 7.300487 8.860685 2
 1.562179 7.501207 9.063371 2
 1.565275 7.703406 9.268669 2
 1.567110 7.907842 9.474941 2
 1.565199 8.115053 9.680242 2
 1.546206 8.315174 9.861370 2
 1.515137 8.478414 9.993545 2
 1.681332 8.452022 10.133356 2
 1.883240 8.437768 10.321006 2
 2.089862 8.438546 10.528419 2
 2.293504 8.439113 10.732624 2
 2.496213 8.439630 10.935861 2
 2.698119 8.440176 11.138311 2
 2.899234 8.440637 11.339887 2
 3.099753 8.440932 11.540708 2
 3.299941 8.441079 11.741044 2
 3.499990 8.441135 11.941159 2
 3.699999 8.441151 12.141182 2
 3.900000 8.441154 12.341196 2
 4.100000 8.441154 12.541197 2
 4.300000 8.441154 12.741200 2
 4.500000 8.441154 12.941210 2
 4.700000 8.441154 13.141210 2
 4.900000 8.441154 13.341204 2
 5.100000 8.441154 13.541209 2
 5.300000 8.441154 13.741210 2
 1.732051 5.400000 7.132074 2
 1.732051 5.600000 7.332070 2
 1.732051 5.800000 7.532065 2
 1.732051 6.000001 7.732062 2
 1.732049 6.200009 7.932064 2
 1.732046 6.400037 8.132088 2
 1.732044 6.600110 8.332150 2
 1.732081 6.800243 8.532315 2
 1.732294 7.000411 8.732696 2
 1.733050 7.200540 8.933580 2
 1.735063 7.400663 9.135714 2
 1.739484 7.601478 9.340950 2
 1.748008 7.806480 9.554483 2
 1.749123 8.015097 9.764215 2
 1.759415 8.243134 10.002544 2
 1.984877 8.263465 10.248339 2
 2.188312 8.264641 10.452958 2
 2.392163 8.264791 10.656964 2
 2.595653 8.265425 10.861091 2
 2.798052 8.266356 11.064423 2
 2.999314 8.267144 11.266481 2
 3.199824 8.267626 11.467471 2
 3.399973 8.267846 11.667850 2
 3.600001 8.267923 11.867963 2
 3.800002 8.267944 12.067987 2
 4.000000 8.267949 12.267988 2
 4.200000 8.267949 12.467996 2
 4.400000 8.267949 12.668004 2
 4.600000 8.267949 12.868001 2
 4.800000 8.267949 13.068006 2
 5.000000 8.267949 13.268011 2
 5.200000 8.267949 13.468011 2
 1.732051 5.200000 6.932075 2
 5.400000 8.267949 13.668005 2
 1.905256 5.300000 7.205281 2
 1.905256 5.500000 7.405276 2
 1.905256 5.700000 7.605273 2
 1.905255 5.900002 7.805268 2
 1.905252 6.100012 8.005268 2
 1.905241 6.300050 8.205294 2
 1.905221 6.500155 8.405376 2
 1.905201 6.700376 8.605573 2
 1.905248 6.900702 8.805946 2
 1.905595 7.100961 9.006548 2
 1.906852 7.300796 9.207636 2
 1.910262 7.499844 9.410099 2
 1.918193 7.697887 9.616071 2
 1.950637 7.914224 9.864853 2
 1.905195 8.105431 10.010617 2
 2.081671 8.092043 10.173715 2
 2.285515 8.089336 10.374851 2
 2.491219 8.088972 10.580196 2
 2.695870 8.090572 10.786451 2
 2.898513 8.092359 10.990889 2
 3.099648 8.093670 11.193343 2
 3.299981 8.094345 11.394351 2
 3.500030 8.094620 11.594684 2
 3.700018 8.094711 11.794768 2
 3.900006 8.094737 11.994787 2
 4.100001 8.094743 12.194787 2
 4.300000 8.094744 12.394794 2
 4.500000 8.094744 12.594801 2
 4.700000 8.094744 12.794806 2
 4.900000 8.094744 12.994808 2
 5.100000 8.094744 13.194804 2
 5.300000 8.094744 13.394800 2
 2.078461 5.400000 7.478484 2
 2.078461 5.600000 7.678481 2
 2.078460 5.800002 7.878474 2
 2.078453 6.000012 8.078472 2
 2.078431 6.200055 8.278488 2
 2.078385 6.400184 8.478566 2
 2.078314 6.600483 8.678796 2
 2.078237 6.801019 8.879254 2
 2.078204 7.001676 9.079878 2
 2.078452 7.201922 9.280369 2
 2.079786 7.400774 9.480557 2
 2.083716 7.597122 9.680831 2
 2.078538 7.767920 9.846448 2
 2.174426 7.914770 10.089202 2
 2.383395 7.908900 10.292295 2
 2.592511 7.912008 10.504530 2
 2.797459 7.915435 10.712905 2
 2.999648 7.918645 10.918311 2
 3.200182 7.920352 11.120554 2
 3.400192 7.921098 11.321317 2
 3.600108 7.921392 11.521537 2
 3.800045 7.921496 11.721583 2
 4.000014 7.921528 11.921586 2
 4.200003 7.921536 12.121589 2
 4.400000 7.921538 12.321594 2
 4.600000 7.921539 12.521601 2
 4.800000 7.921539 12.721602 2
 5.000000 7.921539 12.921601 2
 5.200000 7.921539 13.121598 2
 2.078461 5.200000 7.278483 2
 5.400000 7.921539 13.321602 2
 2.251666 5.300000 7.551690 2
 2.251666 5.500000 7.751686 2
 2.251665 5.700000 7.951681 2
 2.251654 5.900009 8.151669 2
 2.251617 6.100050 8.351669 2
 2.251531 6.300183 8.551716 2
 2.251385 6.500513 8.751899 2
 2.251218 6.701183 8.952396 2
 2.251061 6.902292 9.153351 2
 2.250695 7.103502 9.354192 2
 2.250006 7.303535 9.553537 2
 2.250219 7.500392 9.750609 2
 2.266146 7.714409 9.980553 2
 2.489129 7.730742 10.219872 2
 2.696465 7.733715 10.430189 2
 2.900723 7.741913 10.642649 2
 3.101047 7.745561 10.846626 2
 3.300744 7.747126 11.047897 2
 3.500437 7.747838 11.248302 2
 3.700216 7.748157 11.448407 2
 3.900084 7.748278 11.648404 2
 4.100024 7.748317 11.848394 2
 4.300004 7.748328 12.048382 2
 4.500000 7.748332 12.248390 2
 4.700000 7.748333 12.448395 2
 4.900000 7.748334 12.648399 2
 5.100000 7.748334 12.848397 2
 5.300000 7.748334 13.048398 2
 2.251666 5.100000 7.351694 2
 2.424871 5.200000 7.624891 2
 2.424873 5.400000 7.824892 2
 2.424874 5.600000 8.024887 2
 2.424864 5.800005 8.224876 2
 2.424814 6.000040 8.424859 2
 2.424676 6.200160 8.624841 2
 2.424412 6.400469 8.824882 2
 2.424063 6.601118 9.025184 2
 2.423835 6.802324 9.226159 2
 2.423895 7.004465 9.428359 2
 2.422534 7.206843 9.629375 2
 2.418560 7.406425 9.824983 2
 2.403279 7.577728 9.981005 2
 2.592106 7.533823 10.125942 2
 2.806262 7.564362 10.370631 2
 3.003457 7.570261 10.573731 2
 3.202073 7.572492 10.774585 2
 3.401317 7.573784 10.975128 2
 3.600752 7.574581 11.175365 2
 3.800338 7.574939 11.375319 2
 4.000111 7.575061 11.575213 2
 4.200021 7.575100 11.775167 2
 4.399998 7.575116 11.975169 2
 4.599997 7.575124 12.175173 2
 4.799999 7.575128 12.375184 2
 5.000000 7.575129 12.575187 2
 5.200000 7.575129 12.775188 2
 2.598082 5.300001 7.898100 2
 2.598092 5.500003 8.098109 2
 2.598095 5.700013 8.298120 2
 2.598049 5.900046 8.498103 2
 2.597872 6.100151 8.698027 2
 2.597476 6.300423 8.897907 2
 2.596818 6.500985 9.097808 2
 2.596102 6.701903 9.298007 2
 2.596188 6.903456 9.499646 2
 2.598819 7.108148 9.706970 2
 2.593208 7.313585 9.906796 2
 2.737675 7.405842 10.143522 2
 2.907501 7.396818 10.304333 2
 3.104120 7.397239 10.501382 2
 3.303066 7.398692 10.701782 2
 3.502099 7.400577 10.902708 2
 3.701054 7.401469 11.102559 2
 3.900374 7.401756 11.302167 2
 4.100068 7.401834 11.501949 2
 4.299983 7.401870 11.701899 2
 4.499979 7.401898 11.901924 2
 4.699991 7.401915 12.101957 2
 4.899998 7.401922 12.301968 2
 5.100000 7.401924 12.501978 2
 2.598078 5.099999 7.698101 2
 5.300002 7.401923 12.701978 2
 2.771296 5.200000 7.971315 2
 2.771325 5.400011 8.171354 2
 2.771370 5.600039 8.371423 2
 2.771375 5.800104 8.571490 2
 2.771208 6.000234 8.771451 2
 2.770708 6.200493 8.971207 2
 2.769780 6.401011 9.170793 2
 2.768332 6.601799 9.370131 2
 2.766730 6.802329 9.569066 2
 2.767443 7.001482 9.768935 2
 2.789770 7.217824 10.007599 2
 3.004847 7.222243 10.227104 2
 3.205392 7.220417 10.425830 2
 3.405137 7.225986 10.631148 2
 3.602723 7.228052 10.830808 2
 3.800975 7.228528 11.029538 2
 4.000141 7.228550 11.228725 2
 4.199892 7.228564 11.428497 2
 4.399891 7.228621 11.628553 2
 4.599943 7.228674 11.828665 2
 4.799980 7.228704 12.028731 2
 4.999997 7.228715 12.228758 2
 5.200007 7.228717 12.428770 2
 2.944571 5.300014 8.244601 2
 2.944699 5.500071 8.444783 2
 2.944854 5.700213 8.645081 2
 2.944842 5.900488 8.845341 2
 2.944321 6.100876 9.045210 2
 2.943111 6.301359 9.244476 2
 2.941442 6.502273 9.443724 2
 2.938346 6.703360 9.641718 2
 2.933628 6.902309 9.835944 2
 2.919777 7.074007 9.993794 2
 3.103961 7.025118 10.129089 2
 3.312979 7.051863 10.364862 2
 3.506199 7.055682 10.561905 2
 3.702053 7.055967 10.758047 2
 3.900093 7.055463 10.955591 2
 4.099527 7.055203 11.154768 2
 4.299567 7.055236 11.354842 2
 4.499747 7.055355 11.555145 2
 4.699891 7.055447 11.755385 2
 4.899968 7.055492 11.955500 2
 5.100009 7.055508 12.155559 2
 2.944517 5.099982 8.044517 2
 3.117818 5.199984 8.317824 2
 3.118045 5.400070 8.518134 2
 3.118476 5.600294 8.718783 2
 3.118910 5.800822 8.919745 2
 3.118761 6.001706 9.120482 2
 3.117218 6.202582 9.319813 2
 3.114595 6.402964 9.517570 2
 3.113686 6.605107 9.718799 2
 3.105796 6.807573 9.913382 2
 3.246566 6.896933 10.143515 2
 3.411945 6.887214 10.299175 2
 3.603405 6.885714 10.489141 2
 3.799394 6.883211 10.682628 2
 3.998385 6.881881 10.880295 2
 4.198628 6.881684 11.080345 2
 4.399142 6.881866 11.281046 2
 4.599571 6.882074 11.481677 2
 4.799835 6.882210 11.682081 2
 4.999977 6.882277 11.882297 2
 5.200088 6.882298 12.082430 2
 3.291326 5.300003 8.591349 2
 3.292045 5.500215 8.792279 2
 3.293254 5.700898 8.994171 2
 3.294283 5.902485 9.196787 2
 3.293627 6.104989 9.398633 2
 3.288837 6.306361 9.595211 2
 3.282647 6.503179 9.785839 2
 3.298705 6.713931 10.012651 2
 3.504291 6.721057 10.225368 2
 3.696660 6.713190 10.409868 2
 3.895375 6.708621 10.604024 2
 4.096443 6.707893 10.804365 2
 4.297658 6.708089 11.005774 2
 4.498693 6.708449 11.207169 2
 4.699407 6.708754 11.408194 2
 4.899822 6.708954 11.608810 2
 5.100086 6.709057 11.809180 2
 3.291081 5.099869 8.390969 2
 3.464505 5.199877 8.664403 2
 3.465260 5.399986 8.865262 2
 3.467137 5.600390 9.067545 2
 3.470250 5.802162 9.272430 2
 3.472327 6.006245 9.478590 2
 3.471079 6.213562 9.684657 2
 3.453721 6.414768 9.868505 2
 3.425761 6.579841 10.005619 2
 3.588941 6.549791 10.138757 2
 3.787873 6.533646 10.321542 2
 3.992395 6.533657 10.526075 2
 4.194744 6.533955 10.728727 2
 4.396751 6.534371 10.931146 2
 4.598332 6.534884 11.133246 2
 4.799354 6.535357 11.334737 2
 4.999966 6.535686 11.535684 2
 3.638042 5.299843 8.937904 2
 3.639778 5.499630 9.139429 2
 3.644010 5.699929 9.343955 2
 3.652457 5.904323 9.556799 2
 3.653785 6.112446 9.766248 2
 3.664689 6.340184 10.004895 2
 3.888225 6.359203 10.247450 2
 4.090245 6.359823 10.450093 2
 4.293159 6.359688 10.652874 2
 4.496118 6.360181 10.856329 2
 4.698299 6.361084 11.059410 2
 4.899611 6.361925 11.261567 2
 3.637753 5.099737 8.737513 2
 3.810730 5.200062 9.010818 2
 3.811397 5.399538 9.210957 2
 3.814403 5.598020 9.412441 2
 3.822016 5.795403 9.617441 2
 3.854137 6.010942 9.865099 2
 3.809010 6.201818 10.010850 2
 3.984338 6.187819 10.172180 2
 4.187131 6.184612 10.371762 2
 4.392108 6.183928 10.576061 2
 4.596367 6.185392 10.781783 2
 4.798958 6.187218 10.986202 2
 3.811523 4.999689 8.811234 2
 3.983922 5.100821 9.084764 2
 3.982996 5.300550 9.283562 2
 3.983646 5.498712 9.482374 2
 3.987065 5.694353 9.681438 2
 3.981576 5.864599 9.846195 2
 4.076795 6.010706 10.087523 2
 4.284914 6.004316 10.289250 2
 4.493441 6.007114 10.500578 2
 4.698170 6.010512 10.708699 2
 4.900598 6.013912 10.914530 2
 4.155569 5.202445 9.358030 2
 4.153769 5.401451 9.555236 2
 4.153236 5.597424 9.750678 2
 4.168516 5.810633 9.979171 2
 4.390712 5.826420 10.217153 2
 4.597642 5.829285 10.426948 2
 4.801918 5.837666 10.639599 2
 4.158014 5.002370 9.160399 2
 4.329537 5.104638 9.434189 2
 4.326573 5.305268 9.631856 2
 4.321475 5.503583 9.825073 2
 4.305547 5.674067 9.979633 2
 4.494113 5.630286 10.124414 2
 4.707891 5.660985 10.368888 2
 4.905374 5.667368 10.572748 2
 4.503939 5.207926 9.711869 2
 4.496449 5.411569 9.908032 2
 4.640123 5.503543 10.143678 2
 4.809714 5.495664 10.305383 2
 4.502879 5.005909 9.508799 2
 4.676157 5.103004 9.779169 2
 4.693971 5.318064 10.012046 2
 4.673819 4.906794 9.580619 2
 4.857446 5.002383 9.859835 2
 1 2 3 
 4 5 1 
 6 7 5 
 8 9 7 
 10 11 9 
 12 13 11 
 14 15 13 
 16 17 15 
 18 19 17 
 20 21 19 
 22 23 21 
 24 25 23 
 26 27 25 
 28 29 27 
 30 31 29 
 32 33 31 
 34 35 33 
 36 37 35 
 38 39 37 
 40 41 39 
 42 43 41 
 44 45 43 
 46 47 45 
 48 49 47 
 49 50 51 
 50 52 51 
 52 53 54 
 54 55 56 
 56 57 58 
 58 59 60 
 60 61 62 
 62 63 64 
 64 65 66 
 66 67 68 
 68 69 70 
 70 71 72 
 72 73 74 
 74 75 76 
 76 77 78 
 78 79 80 
 80 81 82 
 82 83 84 
 84 85 86 
 86 87 88 
 88 89 90 
 90 91 92 
 92 93 94 
 94 95 96 
 96 97 98 
 98 99 100 
 101 100 102 
 3 4 1 
 4 6 5 
 6 8 7 
 8 10 9 
 10 12 11 
 12 14 13 
 14 16 15 
 16 18 17 
 18 20 19 
 20 22 21 
 22 24 23 
 24 26 25 
 26 28 27 
 28 30 29 
 30 32 31 
 32 34 33 
 34 36 35 
 36 38 37 
 38 40 39 
 40 42 41 
 42 44 43 
 44 46 45 
 46 48 47 
 103 49 48 
 50 49 103 
 52 50 103 
 53 55 54 
 52 103 53 
 55 57 56 
 57 59 58 
 59 61 60 
 61 63 62 
 63 65 64 
 65 67 66 
 67 69 68 
 69 71 70 
 71 73 72 
 73 75 74 
 75 77 76 
 77 79 78 
 79 81 80 
 81 83 82 
 83 85 84 
 85 87 86 
 87 89 88 
 89 91 90 
 91 93 92 
 93 95 94 
 95 97 96 
 97 99 98 
 99 102 100 
 4 3 104 
 6 4 105 
 8 6 106 
 10 8 107 
 12 10 108 
 14 12 109 
 16 14 110 
 18 16 111 
 20 18 112 
 22 20 113 
 24 22 114 
 26 24 115 
 28 26 116 
 30 28 117 
 32 30 118 
 34 32 119 
 36 34 120 
 38 36 121 
 40 38 122 
 42 40 123 
 44 42 124 
 46 44 125 
 48 46 126 
 48 53 103 
 126 55 53 
 55 127 57 
 57 128 59 
 59 129 61 
 61 130 63 
 63 131 65 
 132 67 65 
 67 133 69 
 69 134 71 
 71 135 73 
 73 136 75 
 75 137 77 
 77 138 79 
 79 139 81 
 81 140 83 
 83 141 85 
 85 142 87 
 87 143 89 
 89 144 91 
 91 145 93 
 93 146 95 
 95 147 97 
 97 148 99 
 99 149 102 
 104 3 150 
 105 4 104 
 106 6 105 
 107 8 106 
 108 10 107 
 109 12 108 
 110 14 109 
 111 16 110 
 112 18 111 
 113 20 112 
 114 22 113 
 115 24 114 
 116 26 115 
 117 28 116 
 118 30 117 
 119 32 118 
 120 34 119 
 121 36 120 
 122 38 121 
 123 40 122 
 124 42 123 
 125 44 124 
 126 46 125 
 48 126 53 
 127 55 126 
 127 128 57 
 128 129 59 
 129 130 61 
 130 131 63 
 131 132 65 
 133 67 132 
 133 134 69 
 134 135 71 
 135 136 73 
 136 137 75 
 137 138 77 
 138 139 79 
 139 140 81 
 140 141 83 
 141 142 85 
 142 143 87 
 143 144 89 
 144 145 91 
 145 146 93 
 146 147 95 
 147 148 97 
 148 149 99 
 104 150 151 
 105 104 152 
 106 105 153 
 107 106 154 
 108 107 155 
 109 108 156 
 110 109 157 
 111 110 158 
 112 111 159 
 113 112 160 
 114 113 161 
 115 114 162 
 116 115 163 
 117 116 164 
 117 165 118 
 119 118 166 
 120 119 167 
 121 120 168 
 122 121 169 
 123 122 170 
 124 123 171 
 172 125 124 
 126 125 173 
 126 173 127 
 127 174 128 
 128 175 129 
 129 176 130 
 130 177 131 
 131 178 132 
 132 179 133 
 133 180 134 
 181 135 134 
 135 182 136 
 136 183 137 
 137 184 138 
 138 185 139 
 139 186 140 
 140 187 141 
 141 188 142 
 142 189 143 
 143 190 144 
 144 191 145 
 145 192 146 
 146 193 147 
 147 194 148 
 148 195 149 
 152 104 151 
 153 105 152 
 154 106 153 
 155 107 154 
 156 108 155 
 157 109 156 
 158 110 157 
 159 111 158 
 160 112 159 
 161 113 160 
 162 114 161 
 163 115 162 
 164 116 163 
 117 164 165 
 166 118 165 
 167 119 166 
 168 120 167 
 169 121 168 
 170 122 169 
 171 123 170 
 171 172 124 
 173 125 172 
 127 173 174 
 174 175 128 
 175 176 129 
 176 177 130 
 177 178 131 
 178 179 132 
 179 180 133 
 180 181 134 
 182 135 181 
 182 183 136 
 183 184 137 
 184 185 138 
 185 186 139 
 186 187 140 
 187 188 141 
 188 189 142 
 189 190 143 
 190 191 144 
 191 192 145 
 192 193 146 
 193 194 147 
 194 195 148 
 195 196 149 
 152 151 197 
 153 152 198 
 154 153 199 
 155 154 200 
 156 155 201 
 157 156 202 
 158 157 203 
 159 158 204 
 160 159 205 
 161 160 206 
 162 161 207 
 162 208 163 
 164 163 209 
 165 164 210 
 166 165 211 
 167 166 212 
 168 167 213 
 169 168 214 
 170 169 215 
 171 170 216 
 172 171 217 
 174 173 172 
 174 218 175 
 175 219 176 
 220 177 176 
 177 221 178 
 178 222 179 
 179 223 180 
 224 181 180 
 181 225 182 
 182 226 183 
 227 184 183 
 184 228 185 
 229 186 185 
 186 230 187 
 187 231 188 
 188 232 189 
 189 233 190 
 190 234 191 
 235 192 191 
 192 236 193 
 193 237 194 
 194 238 195 
 195 239 196 
 197 151 240 
 198 152 197 
 199 153 198 
 200 154 199 
 201 155 200 
 202 156 201 
 203 157 202 
 204 158 203 
 205 159 204 
 206 160 205 
 207 161 206 
 162 207 208 
 209 163 208 
 210 164 209 
 211 165 210 
 212 166 211 
 213 167 212 
 214 168 213 
 215 169 214 
 216 170 215 
 217 171 216 
 174 172 217 
 218 219 175 
 174 217 218 
 219 220 176 
 221 177 220 
 221 222 178 
 222 223 179 
 223 224 180 
 225 181 224 
 225 226 182 
 226 227 183 
 228 184 227 
 228 229 185 
 230 186 229 
 230 231 187 
 231 232 188 
 232 233 189 
 233 234 190 
 234 235 191 
 236 192 235 
 236 237 193 
 237 238 194 
 238 239 195 
 239 241 196 
 197 240 242 
 198 197 243 
 199 198 244 
 200 199 245 
 201 200 246 
 202 201 247 
 202 248 203 
 204 203 249 
 204 250 205 
 205 251 206 
 252 207 206 
 208 207 253 
 208 254 209 
 210 209 255 
 211 210 256 
 212 211 257 
 213 212 258 
 213 259 214 
 214 260 215 
 216 215 261 
 217 216 262 
 262 219 218 
 217 262 218 
 219 263 220 
 264 221 220 
 265 222 221 
 222 266 223 
 223 267 224 
 224 268 225 
 225 269 226 
 270 227 226 
 227 271 228 
 228 272 229 
 273 230 229 
 274 231 230 
 231 275 232 
 276 233 232 
 233 277 234 
 234 278 235 
 235 279 236 
 236 280 237 
 237 281 238 
 238 282 239 
 283 241 239 
 243 197 242 
 244 198 243 
 245 199 244 
 246 200 245 
 247 201 246 
 202 247 248 
 249 203 248 
 204 249 250 
 205 250 251 
 251 252 206 
 253 207 252 
 208 253 254 
 255 209 254 
 256 210 255 
 257 211 256 
 258 212 257 
 213 258 259 
 214 259 260 
 261 215 260 
 262 216 261 
 263 219 262 
 263 264 220 
 265 221 264 
 266 222 265 
 266 267 223 
 267 268 224 
 268 269 225 
 269 270 226 
 271 227 270 
 271 272 228 
 272 273 229 
 274 230 273 
 275 231 274 
 275 276 232 
 277 233 276 
 277 278 234 
 278 279 235 
 279 280 236 
 280 281 237 
 281 282 238 
 282 283 239 
 243 242 284 
 243 285 244 
 244 286 245 
 287 246 245 
 246 288 247 
 247 289 248 
 249 248 290 
 250 249 291 
 251 250 292 
 251 293 252 
 253 252 294 
 254 253 295 
 255 254 296 