TITLE      =  "2D FE Unstructured grid data" 
VARIABLES = "X", "Y", "U", "Dom" 
ZONE T="P1", F=FEPOINT, N= 2985 E= 5768  ET=TRIANGLE 
 0.000000 0.000000 0.000000 0
 0.087327 0.087323 0.174647 0
 0.000000 0.200000 0.200000 0
 0.164068 0.294556 0.458623 0
 0.000000 0.400000 0.400000 0
 0.175415 0.489017 0.664432 0
 0.000000 0.600000 0.600000 0
 0.175187 0.691607 0.866793 0
 0.000000 0.800000 0.800000 0
 0.175773 0.893440 1.069213 0
 0.000000 1.000000 1.000000 0
 0.175430 1.095728 1.271159 0
 0.000000 1.200000 1.200000 0
 0.174509 1.297629 1.472139 0
 0.000000 1.400000 1.400000 0
 0.173791 1.498816 1.672607 0
 0.000000 1.600000 1.600000 0
 0.173419 1.699468 1.872888 0
 0.000000 1.800000 1.800000 0
 0.173268 1.899793 2.073062 0
 0.000000 2.000000 2.000000 0
 0.173220 2.099933 2.273154 0
 0.000000 2.200000 2.200000 0
 0.173207 2.299983 2.473193 0
 0.000000 2.400000 2.400000 0
 0.173205 2.499997 2.673203 0
 0.000000 2.600000 2.600000 0
 0.173205 2.700000 2.873207 0
 0.000000 2.800000 2.800000 0
 0.173205 2.900000 3.073206 0
 0.000000 3.000000 3.000000 0
 0.173205 3.100000 3.273208 0
 0.000000 3.200000 3.200000 0
 0.173205 3.300000 3.473211 0
 0.000000 3.400000 3.400000 0
 0.173205 3.500000 3.673208 0
 0.000000 3.600000 3.600000 0
 0.173205 3.700000 3.873212 0
 0.000000 3.800000 3.800000 0
 0.173205 3.900000 4.073211 0
 0.000000 4.000000 4.000000 0
 0.173205 4.100000 4.273209 0
 0.000000 4.200000 4.200000 0
 0.173205 4.300000 4.473210 0
 0.000000 4.400000 4.400000 0
 0.173205 4.500000 4.673210 0
 0.000000 4.600000 4.600000 0
 0.173205 4.700000 4.873211 0
 0.000000 4.800000 4.800000 0
 0.173205 4.900000 5.073211 0
 0.000000 5.000000 5.000000 0
 0.000000 5.200000 5.200000 0
 0.173205 5.100000 5.273206 0
 0.173205 5.300000 5.473207 0
 0.000000 5.400000 5.400000 0
 0.173205 5.500000 5.673207 0
 0.000000 5.600000 5.600000 0
 0.173205 5.700000 5.873208 0
 0.000000 5.800000 5.800000 0
 0.173205 5.900000 6.073207 0
 0.000000 6.000000 6.000000 0
 0.173205 6.100000 6.273211 0
 0.000000 6.200000 6.200000 0
 0.173205 6.300000 6.473209 0
 0.000000 6.400000 6.400000 0
 0.173205 6.500000 6.673209 0
 0.000000 6.600000 6.600000 0
 0.173205 6.700000 6.873206 0
 0.000000 6.800000 6.800000 0
 0.173205 6.900000 7.073204 0
 0.000000 7.000000 7.000000 0
 0.173205 7.100000 7.273203 0
 0.000000 7.200000 7.200000 0
 0.173205 7.300000 7.473206 0
 0.000000 7.400000 7.400000 0
 0.173205 7.500000 7.673200 0
 0.000000 7.600000 7.600000 0
 0.173205 7.699999 7.873199 0
 0.000000 7.800000 7.800000 0
 0.173210 7.899996 8.073204 0
 0.000000 8.000000 8.000000 0
 0.173231 8.100002 8.273229 0
 0.000000 8.200000 8.200000 0
 0.173282 8.300057 8.473335 0
 0.000000 8.400000 8.400000 0
 0.173355 8.500252 8.673605 0
 0.000000 8.600000 8.600000 0
 0.173396 8.700693 8.874090 0
 0.000000 8.800000 8.800000 0
 0.173305 8.901406 9.074708 0
 0.000000 9.000000 9.000000 0
 0.173112 9.102262 9.275370 0
 0.000000 9.200000 9.200000 0
 0.173339 9.303297 9.476638 0
 0.000000 9.400000 9.400000 0
 0.175066 9.506494 9.681563 0
 0.000000 9.600000 9.600000 0
 0.164370 9.702746 9.867119 0
 0.000000 9.800000 9.800000 0
 0.087359 9.912414 9.999769 0
 0.000000 10.000000 10.000000 0
 0.200000 10.000000 10.200000 0
 0.295277 9.833226 10.128504 0
 0.400000 10.000000 10.400000 0
 0.491419 9.819784 10.311201 0
 0.600000 10.000000 10.600000 0
 0.696277 9.819970 10.516250 0
 0.800000 10.000000 10.800000 0
 0.898880 9.822006 10.720887 0
 1.000000 10.000000 11.000000 0
 1.099898 9.824569 10.924466 0
 1.200000 10.000000 11.200000 0
 1.300002 9.825985 11.125993 0
 1.400000 10.000000 11.400000 0
 1.499953 9.826576 11.326527 0
 1.600000 10.000000 11.600000 0
 1.699943 9.826763 11.526709 0
 1.800000 10.000000 11.800000 0
 1.899964 9.826800 11.726765 0
 2.000000 10.000000 12.000000 0
 2.099984 9.826799 11.926785 0
 2.200000 10.000000 12.200000 0
 2.299995 9.826796 12.126795 0
 2.400000 10.000000 12.400000 0
 2.499999 9.826795 12.326800 0
 2.600000 10.000000 12.600000 0
 2.700000 9.826795 12.526803 0
 2.800000 10.000000 12.800000 0
 2.900000 9.826795 12.726798 0
 3.000000 10.000000 13.000000 0
 3.100000 9.826795 12.926799 0
 3.200000 10.000000 13.200000 0
 3.300000 9.826795 13.126800 0
 3.400000 10.000000 13.400000 0
 3.500000 9.826795 13.326797 0
 3.600000 10.000000 13.600000 0
 3.700000 9.826795 13.526797 0
 3.800000 10.000000 13.800000 0
 3.900000 9.826795 13.726802 0
 4.000000 10.000000 14.000000 0
 4.100000 9.826795 13.926805 0
 4.200000 10.000000 14.200000 0
 4.300000 9.826795 14.126803 0
 4.400000 10.000000 14.400000 0
 4.500000 9.826795 14.326806 0
 4.600000 10.000000 14.600000 0
 4.700000 9.826795 14.526810 0
 4.800000 10.000000 14.800000 0
 4.900000 9.826795 14.726813 0
 5.000000 10.000000 15.000000 0
 5.200000 10.000000 15.200000 0
 5.100000 9.826795 14.926808 0
 5.300000 9.826795 15.126808 0
 5.400000 10.000000 15.400000 0
 5.500000 9.826795 15.326813 0
 5.600000 10.000000 15.600000 0
 5.700000 9.826795 15.526801 0
 5.800000 10.000000 15.800000 0
 5.900000 9.826795 15.726807 0
 6.000000 10.000000 16.000000 0
 6.100000 9.826795 15.926802 0
 6.200000 10.000000 16.200001 0
 6.300000 9.826795 16.126801 0
 6.400000 10.000000 16.400000 0
 6.500000 9.826795 16.326805 0
 6.600000 10.000000 16.600000 0
 6.700000 9.826795 16.526802 0
 6.800000 10.000000 16.799999 0
 6.900000 9.826795 16.726809 0
 7.000000 10.000000 17.000000 0
 7.100000 9.826795 16.926800 0
 7.200000 10.000000 17.200001 0
 7.300000 9.826795 17.126799 0
 7.400000 10.000000 17.400000 0
 7.500000 9.826796 17.326797 0
 7.600000 10.000000 17.600000 0
 7.700002 9.826799 17.526796 0
 7.800000 10.000000 17.799999 0
 7.900011 9.826811 17.726818 0
 8.000000 10.000000 18.000000 0
 8.100041 9.826840 17.926889 0
 8.200000 10.000000 18.200001 0
 8.300128 9.826893 18.127028 0
 8.400000 10.000000 18.400000 0
 8.500334 9.826964 18.327307 0
 8.600000 10.000000 18.600000 0
 8.700749 9.827041 18.527802 0
 8.800000 10.000000 18.799999 0
 8.901427 9.827153 18.728575 0
 9.000000 10.000000 19.000000 0
 9.102324 9.827316 18.929642 0
 9.200000 10.000000 19.200001 0
 9.303625 9.827213 19.130836 0
 9.400000 10.000000 19.400000 0
 9.507698 9.826240 19.333944 0
 9.600000 10.000000 19.600000 0
 9.707205 9.840112 19.547316 0
 9.800000 10.000000 19.799999 0
 9.868964 9.869840 19.738802 0
 10.000000 10.000000 20.000000 0
 10.000000 9.800000 19.799999 0
 9.837681 9.709203 19.546881 0
 10.000000 9.600000 19.600000 0
 9.820952 9.509867 19.330828 0
 10.000000 9.400000 19.400000 0
 9.820171 9.304181 19.124348 0
 10.000000 9.200000 19.200001 0
 9.821795 9.101304 18.923101 0
 10.000000 9.000000 19.000000 0
 9.824164 8.900148 18.724327 0
 10.000000 8.800000 18.799999 0
 9.825560 8.699957 18.525524 0
 10.000000 8.600000 18.600000 0
 9.826258 8.499968 18.326233 0
 10.000000 8.400000 18.400000 0
 9.826588 8.299988 18.126581 0
 10.000000 8.200000 18.200001 0
 9.826729 8.099998 17.926722 0
 10.000000 8.000000 18.000000 0
 9.826778 7.900001 17.726784 0
 10.000000 7.800000 17.799999 0
 9.826792 7.700001 17.526783 0
 10.000000 7.600000 17.600000 0
 9.826795 7.500000 17.326801 0
 10.000000 7.400000 17.400000 0
 9.826795 7.300000 17.126783 0
 10.000000 7.200000 17.200001 0
 9.826795 7.100000 16.926796 0
 10.000000 7.000000 17.000000 0
 9.826795 6.900000 16.726799 0
 10.000000 6.800000 16.799999 0
 9.826795 6.700000 16.526804 0
 10.000000 6.600000 16.600000 0
 9.826795 6.500000 16.326803 0
 10.000000 6.400000 16.400000 0
 9.826795 6.300000 16.126802 0
 10.000000 6.200000 16.200001 0
 9.826795 6.100000 15.926806 0
 10.000000 6.000000 16.000000 0
 9.826795 5.900000 15.726797 0
 10.000000 5.800000 15.800000 0
 9.826795 5.700000 15.526804 0
 10.000000 5.600000 15.600000 0
 9.826795 5.500000 15.326805 0
 10.000000 5.400000 15.400000 0
 9.826795 5.300000 15.126808 0
 10.000000 5.200000 15.200000 0
 9.826795 5.100000 14.926805 0
 10.000000 5.000000 15.000000 0
 9.826795 4.900000 14.726803 0
 10.000000 4.800000 14.800000 0
 9.826795 4.700000 14.526810 0
 10.000000 4.600000 14.600000 0
 9.826795 4.500000 14.326805 0
 10.000000 4.400000 14.400000 0
 9.826795 4.300000 14.126804 0
 10.000000 4.200000 14.200000 0
 9.826795 4.100000 13.926805 0
 10.000000 4.000000 14.000000 0
 9.826795 3.900000 13.726801 0
 10.000000 3.800000 13.800000 0
 9.826795 3.700000 13.526802 0
 10.000000 3.600000 13.600000 0
 9.826795 3.500000 13.326801 0
 10.000000 3.400000 13.400000 0
 9.826795 3.300000 13.126801 0
 10.000000 3.200000 13.200000 0
 9.826795 3.100000 12.926800 0
 10.000000 3.000000 13.000000 0
 9.826795 2.900000 12.726796 0
 10.000000 2.800000 12.800000 0
 9.826795 2.700000 12.526793 0
 10.000000 2.600000 12.600000 0
 9.826796 2.500000 12.326797 0
 10.000000 2.400000 12.400000 0
 9.826795 2.300001 12.126802 0
 10.000000 2.200000 12.200000 0
 9.826790 2.100004 11.926799 0
 10.000000 2.000000 12.000000 0
 9.826769 1.899997 11.726768 0
 10.000000 1.800000 11.800000 0
 9.826718 1.699942 11.526669 0
 10.000000 1.600000 11.600000 0
 9.826645 1.499748 11.326399 0
 10.000000 1.400000 11.400000 0
 9.826605 1.299307 11.125908 0
 10.000000 1.200000 11.200000 0
 9.826694 1.098594 10.925291 0
 10.000000 1.000000 11.000000 0
 9.826888 0.897739 10.724627 0
 10.000000 0.800000 10.800000 0
 9.826661 0.696703 10.523359 0
 10.000000 0.600000 10.600000 0
 9.824934 0.493506 10.318440 0
 10.000000 0.400000 10.400000 0
 9.835630 0.297254 10.132884 0
 10.000000 0.200000 10.200000 0
 9.912641 0.087587 10.000228 0
 10.000000 0.000000 10.000000 0
 9.800000 0.000000 9.800000 0
 9.600000 0.000000 9.600000 0
 9.704722 0.166774 9.871496 0
 9.400000 0.000000 9.400000 0
 9.508581 0.180216 9.688798 0
 9.200000 0.000000 9.200000 0
 9.303722 0.180030 9.483755 0
 9.000000 0.000000 9.000000 0
 9.101120 0.177994 9.279119 0
 8.800000 0.000000 8.800000 0
 8.900103 0.175431 9.075534 0
 8.600000 0.000000 8.600000 0
 8.699998 0.174015 8.874010 0
 8.400000 0.000000 8.400000 0
 8.500047 0.173424 8.673470 0
 8.200000 0.000000 8.200000 0
 8.300056 0.173237 8.473292 0
 8.000000 0.000000 8.000000 0
 8.100037 0.173200 8.273233 0
 7.800000 0.000000 7.800000 0
 7.900016 0.173201 8.073217 0
 7.600000 0.000000 7.600000 0
 7.700005 0.173204 7.873204 0
 7.400000 0.000000 7.400000 0
 7.500001 0.173205 7.673203 0
 7.200000 0.000000 7.200000 0
 7.300000 0.173205 7.473204 0
 7.000000 0.000000 7.000000 0
 7.100000 0.173205 7.273200 0
 6.800000 0.000000 6.800000 0
 6.900000 0.173205 7.073205 0
 6.600000 0.000000 6.600000 0
 6.700000 0.173205 6.873206 0
 6.400000 0.000000 6.400000 0
 6.500000 0.173205 6.673204 0
 6.200000 0.000000 6.200000 0
 6.300000 0.173205 6.473205 0
 6.000000 0.000000 6.000000 0
 6.100000 0.173205 6.273204 0
 5.800000 0.000000 5.800000 0
 5.900000 0.173205 6.073205 0
 5.600000 0.000000 5.600000 0
 5.700000 0.173205 5.873206 0
 5.400000 0.000000 5.400000 0
 5.500000 0.173205 5.673206 0
 5.200000 0.000000 5.200000 0
 5.300000 0.173205 5.473205 0
 5.000000 0.000000 5.000000 0
 5.100000 0.173205 5.273205 0
 4.800000 0.000000 4.800000 0
 4.900000 0.173205 5.073210 0
 4.600000 0.000000 4.600000 0
 4.700000 0.173205 4.873207 0
 4.400000 0.000000 4.400000 0
 4.500000 0.173205 4.673208 0
 4.200000 0.000000 4.200000 0
 4.300000 0.173205 4.473207 0
 4.000000 0.000000 4.000000 0
 4.100000 0.173205 4.273209 0
 3.800000 0.000000 3.800000 0
 3.900000 0.173205 4.073208 0
 3.600000 0.000000 3.600000 0
 3.700000 0.173205 3.873211 0
 3.400000 0.000000 3.400000 0
 3.500000 0.173205 3.673206 0
 3.200000 0.000000 3.200000 0
 3.300000 0.173205 3.473207 0
 3.000000 0.000000 3.000000 0
 3.100000 0.173205 3.273205 0
 2.800000 0.000000 2.800000 0
 2.900000 0.173205 3.073206 0
 2.600000 0.000000 2.600000 0
 2.700000 0.173205 2.873206 0
 2.400000 0.000000 2.400000 0
 2.499997 0.173206 2.673204 0
 2.200000 0.000000 2.200000 0
 2.299983 0.173208 2.473190 0
 2.000000 0.000000 2.000000 0
 2.099934 0.173219 2.273154 0
 1.800000 0.000000 1.800000 0
 1.899802 0.173259 2.073061 0
 1.600000 0.000000 1.600000 0
 1.699498 0.173389 1.872887 0
 1.400000 0.000000 1.400000 0
 1.498881 0.173726 1.672608 0
 1.200000 0.000000 1.200000 0
 1.297737 0.174401 1.472139 0
 1.000000 0.000000 1.000000 0
 1.095870 0.175288 1.271159 0
 0.800000 0.000000 0.800000 0
 0.893593 0.175620 1.069214 0
 0.600000 0.000000 0.600000 0
 0.691741 0.175052 0.866792 0
 0.400000 0.000000 0.400000 0
 0.489115 0.175317 0.664432 0
 0.200000 0.000000 0.200000 0
 0.294610 0.164014 0.458623 0
 0.149248 0.149227 0.298479 0
 0.149413 9.849668 9.999084 0
 9.850587 0.150333 10.000921 0
 0.364719 0.364563 0.729282 0
 0.348253 0.582570 0.930823 0
 0.351911 0.783551 1.135462 0
 0.352893 0.988529 1.341423 0
 0.350517 1.193471 1.543990 0
 0.348400 1.396510 1.744910 0
 0.347229 1.598247 1.945476 0
 0.346699 1.799212 2.145912 0
 0.346493 1.999698 2.346194 0
 0.346428 2.199904 2.546334 0
 0.346412 2.399976 2.746391 0
 0.346410 2.599996 2.946406 0
 0.346410 2.799999 3.146412 0
 0.346410 3.000000 3.346415 0
 0.346410 3.200000 3.546417 0
 0.346410 3.400000 3.746416 0
 0.346410 3.600000 3.946420 0
 0.346410 3.800000 4.146422 0
 0.346410 4.000000 4.346422 0
 0.346410 4.200000 4.546420 0
 0.346410 4.400000 4.746418 0
 0.346410 4.600000 4.946418 0
 0.346410 4.800000 5.146420 0
 0.346410 5.000000 5.346418 0
 0.346410 5.200000 5.546415 0
 0.346410 5.400000 5.746415 0
 0.346410 5.600000 5.946417 0
 0.346410 5.800000 6.146416 0
 0.346410 6.000000 6.346415 0
 0.346410 6.200000 6.546414 0
 0.346410 6.400000 6.746416 0
 0.346410 6.600000 6.946411 0
 0.346410 6.800000 7.146408 0
 0.346410 7.000000 7.346408 0
 0.346410 7.200000 7.546407 0
 0.346410 7.400000 7.746406 0
 0.346408 7.599998 7.946400 0
 0.346411 7.799990 8.146394 0
 0.346439 7.999973 8.346403 0
 0.346539 8.199990 8.546530 0
 0.346761 8.400186 8.746939 0
 0.347051 8.600819 8.947866 0
 0.347170 8.802126 9.149293 0
 0.346724 9.003945 9.350664 0
 0.345804 9.205498 9.551300 0
 0.346365 9.405966 9.752329 0
 0.366420 9.627176 9.993595 0
 0.590643 9.638189 10.228832 0
 0.797026 9.639455 10.436481 0
 1.000504 9.647519 10.648022 0
 1.200404 9.651418 10.851828 0
 1.400005 9.653032 11.053047 0
 1.599845 9.653549 11.253395 0
 1.799859 9.653640 11.453502 0
 1.999921 9.653622 11.653546 0
 2.199967 9.653599 11.853576 0
 2.399989 9.653590 12.053586 0
 2.599997 9.653589 12.253598 0
 2.799999 9.653589 12.453595 0
 3.000000 9.653590 12.653595 0
 3.200000 9.653590 12.853601 0
 3.400000 9.653590 13.053604 0
 3.600000 9.653590 13.253598 0
 3.800000 9.653590 13.453607 0
 4.000000 9.653590 13.653609 0
 4.200000 9.653590 13.853613 0
 4.400000 9.653590 14.053613 0
 4.600000 9.653590 14.253613 0
 4.800000 9.653590 14.453612 0
 5.000000 9.653590 14.653611 0
 5.200000 9.653590 14.853610 0
 5.400000 9.653590 15.053611 0
 5.600000 9.653590 15.253609 0
 5.800000 9.653590 15.453614 0
 6.000000 9.653590 15.653617 0
 6.200000 9.653590 15.853612 0
 6.400000 9.653590 16.053610 0
 6.600000 9.653590 16.253605 0
 6.800000 9.653590 16.453602 0
 7.000000 9.653590 16.653603 0
 7.200000 9.653590 16.853598 0
 7.400001 9.653591 17.053604 0
 7.600004 9.653597 17.253599 0
 7.800018 9.653618 17.453634 0
 8.000062 9.653674 17.653744 0
 8.200181 9.653785 17.853973 0
 8.400465 9.653945 18.054417 0
 8.601070 9.654096 18.255184 0
 8.802207 9.654192 18.456406 0
 9.003881 9.654489 18.658382 0
 9.205553 9.655162 18.860725 0
 9.406587 9.654738 19.061323 0
 9.629012 9.635622 19.264641 0
 9.638646 9.410381 19.049015 0
 9.639001 9.203550 18.842562 0
 9.646443 8.999763 18.646217 0
 9.650084 8.799567 18.449654 0
 9.651889 8.599755 18.251646 0
 9.652842 8.399879 18.052729 0
 9.653315 8.199951 17.853277 0
 9.653508 7.999991 17.653509 0
 9.653569 7.800005 17.453577 0
 9.653584 7.600005 17.253586 0
 9.653588 7.400002 17.053598 0
 9.653589 7.200001 16.853590 0
 9.653590 7.000000 16.653595 0
 9.653590 6.800000 16.453587 0
 9.653590 6.600000 16.253595 0
 9.653590 6.400000 16.053608 0
 9.653590 6.200000 15.853606 0
 9.653590 6.000000 15.653606 0
 9.653590 5.800000 15.453607 0
 9.653590 5.600000 15.253601 0
 9.653590 5.400000 15.053609 0
 9.653590 5.200000 14.853604 0
 9.653590 5.000000 14.653608 0
 9.653590 4.800000 14.453609 0
 9.653590 4.600000 14.253606 0
 9.653590 4.400000 14.053602 0
 9.653590 4.200000 13.853606 0
 9.653590 4.000000 13.653607 0
 9.653590 3.800000 13.453601 0
 9.653590 3.600000 13.253602 0
 9.653590 3.400000 13.053599 0
 9.653590 3.200000 12.853595 0
 9.653590 3.000000 12.653597 0
 9.653590 2.800000 12.453600 0
 9.653590 2.600000 12.253591 0
 9.653592 2.400002 12.053601 0
 9.653589 2.200010 11.853604 0
 9.653562 2.000027 11.653597 0
 9.653461 1.800009 11.453478 0
 9.653239 1.599814 11.253057 0
 9.652949 1.399181 11.052128 0
 9.652830 1.197874 10.850706 0
 9.653275 0.996054 10.649331 0
 9.654196 0.794502 10.448701 0
 9.653635 0.594034 10.247667 0
 9.633580 0.372823 10.006402 0
 9.409357 0.361810 9.771170 0
 9.202974 0.360545 9.563524 0
 8.999496 0.352481 9.351980 0
 8.799597 0.348583 9.148188 0
 8.599996 0.346968 8.946966 0
 8.400155 0.346451 8.746606 0
 8.200141 0.346361 8.546498 0
 8.000079 0.346379 8.346455 0
 7.800033 0.346402 8.146431 0
 7.600011 0.346410 7.946419 0
 7.400003 0.346411 7.746408 0
 7.200001 0.346411 7.546406 0
 7.000000 0.346410 7.346404 0
 6.800000 0.346410 7.146405 0
 6.600000 0.346410 6.946410 0
 6.400000 0.346410 6.746412 0
 6.200000 0.346410 6.546411 0
 6.000000 0.346410 6.346413 0
 5.800000 0.346410 6.146414 0
 5.600000 0.346410 5.946415 0
 5.400000 0.346410 5.746414 0
 5.200000 0.346410 5.546414 0
 5.000000 0.346410 5.346415 0
 4.800000 0.346410 5.146416 0
 4.600000 0.346410 4.946414 0
 4.400000 0.346410 4.746416 0
 4.200000 0.346410 4.546415 0
 4.000000 0.346410 4.346416 0
 3.800000 0.346410 4.146416 0
 3.600000 0.346410 3.946416 0
 3.400000 0.346410 3.746414 0
 3.200000 0.346410 3.546412 0
 3.000000 0.346410 3.346412 0
 2.799999 0.346411 3.146411 0
 2.599994 0.346412 2.946407 0
 2.399972 0.346417 2.746389 0
 2.199898 0.346434 2.546332 0
 1.999698 0.346494 2.346193 0
 1.799239 0.346673 2.145913 0
 1.598330 0.347146 1.945476 0
 1.396678 0.348232 1.744909 0
 1.193725 0.350263 1.543990 0
 0.988833 0.352589 1.341423 0
 0.783846 0.351615 1.135462 0
 0.582808 0.348015 0.930823 0
 0.497809 0.497512 0.995321 0
 0.524303 0.667888 1.192192 0
 0.535935 0.875688 1.411625 0
 0.529597 1.087411 1.617009 0
 0.524426 1.292970 1.817396 0
 0.521805 1.495965 2.017770 0
 0.520541 1.697896 2.218437 0
 0.519944 1.899053 2.418997 0
 0.519704 2.099636 2.619342 0
 0.519631 2.299881 2.819515 0
 0.519616 2.499967 3.019585 0
 0.519615 2.699993 3.219611 0
 0.519615 2.899999 3.419620 0
 0.519615 3.100000 3.619621 0
 0.519615 3.300000 3.819622 0
 0.519615 3.500000 4.019626 0
 0.519615 3.700000 4.219628 0
 0.519615 3.900000 4.419631 0
 0.519615 4.100000 4.619630 0
 0.519615 4.300000 4.819628 0
 0.519615 4.500000 5.019629 0
 0.519615 4.700000 5.219628 0
 0.519615 4.900000 5.419629 0
 0.519615 5.100000 5.619626 0
 0.519615 5.300000 5.819625 0
 0.519615 5.500000 6.019623 0
 0.519615 5.700000 6.219625 0
 0.519615 5.900000 6.419625 0
 0.519615 6.100000 6.619622 0
 0.519615 6.300000 6.819623 0
 0.519615 6.500000 7.019617 0
 0.519615 6.700000 7.219613 0
 0.519615 6.900000 7.419615 0
 0.519615 7.100000 7.619612 0
 0.519615 7.300002 7.819609 0
 0.519613 7.500002 8.019604 0
 0.519607 7.699993 8.219591 0
 0.519617 7.899950 8.419558 0
 0.519721 8.099868 8.619581 0
 0.520078 8.299863 8.819939 0
 0.520832 8.500332 9.021166 0
 0.521715 8.701867 9.223580 0
 0.522033 8.904896 9.426929 0
 0.520167 9.108484 9.628649 0
 0.516094 9.309842 9.825933 0
 0.502026 9.483924 9.985949 0
 0.691279 9.438541 10.129821 0
 0.905519 9.469888 10.375407 0
 1.102293 9.477044 10.579343 0
 1.300466 9.479819 10.780291 0
 1.499710 9.480616 10.980333 0
 1.699596 9.480661 11.180265 0
 1.899716 9.480534 11.380256 0
 2.099850 9.480433 11.580284 0
 2.299935 9.480390 11.780331 0
 2.499976 9.480380 11.980362 0
 2.699993 9.480382 12.180380 0
 2.899999 9.480384 12.380391 0
 3.100000 9.480385 12.580394 0
 3.300000 9.480385 12.780400 0
 3.500000 9.480385 12.980398 0
 3.700000 9.480385 13.180402 0
 3.900000 9.480385 13.380406 0
 4.100000 9.480385 13.580411 0
 4.300000 9.480385 13.780416 0
 4.500000 9.480385 13.980416 0
 4.700000 9.480385 14.180415 0
 4.900000 9.480385 14.380414 0
 5.100000 9.480385 14.580414 0
 5.300000 9.480385 14.780417 0
 5.500000 9.480385 14.980417 0
 5.700000 9.480385 15.180416 0
 5.900000 9.480385 15.380415 0
 6.100000 9.480385 15.580413 0
 6.300000 9.480385 15.780408 0
 6.500000 9.480385 15.980398 0
 6.700000 9.480385 16.180397 0
 6.900000 9.480385 16.380402 0
 7.100000 9.480385 16.580406 0
 7.300002 9.480387 16.780401 0
 7.500010 9.480394 16.980402 0
 7.700032 9.480425 17.180454 0
 7.900091 9.480510 17.380611 0
 8.100234 9.480691 17.580936 0
 8.300544 9.480989 17.781540 0
 8.501161 9.481326 17.982500 0
 8.702361 9.481443 18.183815 0
 8.904716 9.481133 18.385855 0
 9.107935 9.482063 18.590008 0
 9.309589 9.485273 18.794874 0
 9.484353 9.499175 18.983524 0
 9.437746 9.309972 18.747726 0
 9.467803 9.095390 18.563198 0
 9.473907 8.897997 18.371918 0
 9.476659 8.699073 18.175737 0
 9.478454 8.499472 17.977928 0
 9.479591 8.299726 17.779314 0
 9.480122 8.099918 17.580044 0
 9.480307 7.900009 17.380322 0
 9.480357 7.700027 17.180399 0
 9.480372 7.500017 16.980394 0
 9.480380 7.300006 16.780382 0
 9.480384 7.100001 16.580389 0
 9.480385 6.900000 16.380383 0
 9.480385 6.700000 16.180401 0
 9.480385 6.500000 15.980397 0
 9.480385 6.300000 15.780399 0
 9.480385 6.100000 15.580402 0
 9.480385 5.900000 15.380409 0
 9.480385 5.700000 15.180409 0
 9.480385 5.500000 14.980405 0
 9.480385 5.300000 14.780407 0
 9.480385 5.100000 14.580413 0
 9.480385 4.900000 14.380412 0
 9.480385 4.700000 14.180409 0
 9.480385 4.500000 13.980412 0
 9.480385 4.300000 13.780405 0
 9.480385 4.100000 13.580401 0
 9.480385 3.900000 13.380402 0
 9.480385 3.700000 13.180405 0
 9.480385 3.500000 12.980399 0
 9.480385 3.300000 12.780401 0
 9.480385 3.100000 12.580397 0
 9.480385 2.900000 12.380396 0
 9.480386 2.699999 12.180397 0
 9.480391 2.499998 11.980390 0
 9.480398 2.300007 11.780411 0
 9.480389 2.100050 11.580436 0
 9.480285 1.900133 11.380422 0
 9.479924 1.700137 11.180068 0
 9.479170 1.499668 10.978842 0
 9.478285 1.298133 10.776421 0
 9.477967 1.095104 10.573076 0
 9.479834 0.891516 10.371351 0
 9.483906 0.690157 10.174066 0
 9.497973 0.516076 10.014053 0
 9.308722 0.561459 9.870180 0
 9.094481 0.530112 9.624606 0
 8.897707 0.522956 9.420667 0
 8.699534 0.520181 9.219721 0
 8.500291 0.519385 9.019676 0
 8.300405 0.519342 8.819741 0
 8.100284 0.519471 8.619747 0
 7.900150 0.519573 8.419709 0
 7.700065 0.519616 8.219676 0
 7.500023 0.519623 8.019636 0
 7.300007 0.519620 7.819619 0
 7.100001 0.519617 7.619611 0
 6.900000 0.519615 7.419611 0
 6.700000 0.519615 7.219611 0
 6.500000 0.519615 7.019618 0
 6.300000 0.519615 6.819617 0
 6.100000 0.519615 6.619621 0
 5.900000 0.519615 6.419622 0
 5.700000 0.519615 6.219622 0
 5.500000 0.519615 6.019622 0
 5.300000 0.519615 5.819619 0
 5.100000 0.519615 5.619623 0
 4.900000 0.519615 5.419625 0
 4.700000 0.519615 5.219624 0
 4.500000 0.519615 5.019624 0
 4.300000 0.519615 4.819624 0
 4.100000 0.519615 4.619624 0
 3.900000 0.519615 4.419624 0
 3.700000 0.519615 4.219623 0
 3.500000 0.519615 4.019621 0
 3.300000 0.519615 3.819618 0
 3.100000 0.519615 3.619617 0
 2.899998 0.519616 3.419616 0
 2.699988 0.519620 3.219610 0
 2.499955 0.519628 3.019583 0
 2.299857 0.519655 2.819514 0
 2.099603 0.519737 2.619340 0
 1.899034 0.519963 2.418998 0
 1.697936 0.520501 2.218436 0
 1.496118 0.521652 2.017769 0
 1.293265 0.524131 1.817396 0
 1.087824 0.529184 1.617010 0
 0.876140 0.535483 1.411625 0
 0.668282 0.523908 1.192192 0
 0.743781 0.743251 1.487033 0
 0.714766 0.982336 1.697103 0
 0.701785 1.189739 1.891525 0
 0.697349 1.392592 2.089941 0
 0.695211 1.595436 2.290646 0
 0.693850 1.797657 2.491507 0
 0.693159 1.998944 2.692105 0
 0.692903 2.199569 2.892474 0
 0.692837 2.399840 3.092680 0
 0.692825 2.599946 3.292773 0
 0.692823 2.799984 3.492814 0
 0.692821 2.999996 3.692825 0
 0.692821 3.199999 3.892830 0
 0.692820 3.400000 4.092832 0
 0.692820 3.600000 4.292834 0
 0.692820 3.800000 4.492836 0
 0.692820 4.000000 4.692835 0
 0.692820 4.200000 4.892835 0
 0.692820 4.400000 5.092834 0
 0.692820 4.600000 5.292838 0
 0.692820 4.800000 5.492835 0
 0.692820 5.000000 5.692838 0
 0.692820 5.200000 5.892834 0
 0.692820 5.400000 6.092833 0
 0.692820 5.600000 6.292830 0
 0.692820 5.800000 6.492833 0
 0.692820 6.000000 6.692830 0
 0.692820 6.200000 6.892827 0
 0.692820 6.400000 7.092824 0
 0.692820 6.600000 7.292820 0
 0.692820 6.800000 7.492817 0
 0.692822 7.000001 7.692817 0
 0.692824 7.200005 7.892822 0
 0.692827 7.400013 8.092832 0
 0.692819 7.600022 8.292830 0
 0.692793 7.799987 8.492770 0
 0.692804 7.999825 8.692616 0
 0.693086 8.199495 8.892570 0
 0.694128 8.399289 9.093412 0
 0.696392 8.600256 9.296642 0
 0.698498 8.803503 9.501993 0
 0.699922 9.010504 9.710421 0
 0.692332 9.217192 9.909528 0
 0.837106 9.311172 10.148276 0
 1.006657 9.305138 10.311793 0
 1.201722 9.308072 10.509796 0
 1.399538 9.308581 10.708120 0
 1.599009 9.308180 10.907195 0
 1.799177 9.307693 11.106875 0
 1.999483 9.307365 11.306853 0
 2.199725 9.307206 11.506934 0
 2.399874 9.307160 11.707052 0
 2.599952 9.307162 11.907122 0
 2.799986 9.307173 12.107171 0
 2.999997 9.307178 12.307183 0
 3.200000 9.307179 12.507191 0
 3.400000 9.307179 12.707200 0
 3.600000 9.307179 12.907204 0
 3.800000 9.307179 13.107203 0
 4.000000 9.307179 13.307205 0
 4.200000 9.307179 13.507209 0
 4.400000 9.307179 13.707212 0
 4.600000 9.307179 13.907220 0
 4.800000 9.307179 14.107217 0
 5.000000 9.307179 14.307218 0
 5.200000 9.307179 14.507214 0
 5.400000 9.307179 14.707213 0
 5.600000 9.307179 14.907213 0
 5.800000 9.307179 15.107210 0
 6.000000 9.307179 15.307203 0
 6.200000 9.307179 15.507206 0
 6.400000 9.307179 15.707204 0
 6.600000 9.307179 15.907200 0
 6.800000 9.307179 16.107197 0
 7.000001 9.307179 16.307198 0
 7.200006 9.307181 16.507198 0
 7.400021 9.307189 16.707220 0
 7.600062 9.307224 16.907290 0
 7.800154 9.307332 17.107481 0
 8.000341 9.307586 17.307930 0
 8.200694 9.308045 17.508745 0
 8.401299 9.308702 17.710003 0
 8.602229 9.309296 17.911539 0
 8.803866 9.308906 18.112789 0
 9.008959 9.305711 18.314674 0
 9.215408 9.310452 18.525871 0
 9.308238 9.165133 18.473387 0
 9.299490 8.995043 18.294542 0
 9.300645 8.797984 18.098642 0
 9.302873 8.598524 17.901396 0
 9.305339 8.398994 17.704338 0
 9.306558 8.199627 17.506193 0
 9.306973 8.000001 17.306984 0
 9.307079 7.800108 17.107191 0
 9.307117 7.600085 16.907202 0
 9.307146 7.400040 16.707186 0
 9.307167 7.200013 16.507187 0
 9.307177 7.000003 16.307188 0
 9.307179 6.800000 16.107189 0
 9.307179 6.600000 15.907189 0
 9.307179 6.400000 15.707195 0
 9.307179 6.200000 15.507199 0
 9.307179 6.000000 15.307201 0
 9.307179 5.800000 15.107203 0
 9.307179 5.600000 14.907200 0
 9.307179 5.400000 14.707207 0
 9.307179 5.200000 14.507206 0
 9.307179 5.000000 14.307208 0
 9.307179 4.800000 14.107214 0
 9.307179 4.600000 13.907208 0
 9.307179 4.400000 13.707205 0
 9.307179 4.200000 13.507201 0
 9.307179 4.000000 13.307199 0
 9.307179 3.800000 13.107200 0
 9.307179 3.600000 12.907200 0
 9.307179 3.400000 12.707197 0
 9.307179 3.200000 12.507194 0
 9.307179 2.999999 12.307191 0
 9.307180 2.799995 12.107181 0
 9.307187 2.599985 11.907186 0
 9.307206 2.399977 11.707191 0
 9.307241 2.200013 11.507254 0
 9.307230 2.000178 11.307411 0
 9.306939 1.800509 11.107464 0
 9.305885 1.600714 10.906610 0
 9.303614 1.399746 10.703367 0
 9.301503 1.196497 10.498007 0
 9.300078 0.989496 10.289577 0
 9.307668 0.782809 10.090477 0
 9.162893 0.688829 9.851722 0
 8.993343 0.694862 9.688208 0
 8.798278 0.691929 9.490209 0
 8.600464 0.691424 9.291892 0
 8.400994 0.691834 9.092829 0
 8.200827 0.692332 8.893146 0
 8.000520 0.692669 8.693179 0
 7.800275 0.692829 8.493091 0
 7.600124 0.692866 8.292978 0
 7.400046 0.692852 8.092886 0
 7.200013 0.692833 7.892838 0
 7.000003 0.692824 7.692820 0
 6.800000 0.692821 7.492817 0
 6.600000 0.692820 7.292818 0
 6.400000 0.692820 7.092822 0
 6.200000 0.692820 6.892828 0
 6.000000 0.692820 6.692828 0
 5.800000 0.692820 6.492828 0
 5.600000 0.692820 6.292830 0
 5.400000 0.692820 6.092828 0
 5.200000 0.692820 5.892828 0
 5.000000 0.692820 5.692831 0
 4.800000 0.692820 5.492834 0
 4.600000 0.692820 5.292831 0
 4.400000 0.692820 5.092832 0
 4.200000 0.692820 4.892830 0
 4.000000 0.692820 4.692830 0
 3.800000 0.692820 4.492830 0
 3.600000 0.692820 4.292830 0
 3.400000 0.692820 4.092828 0
 3.199999 0.692821 3.892826 0
 2.999994 0.692823 3.692822 0
 2.799976 0.692830 3.492811 0
 2.599922 0.692849 3.292773 0
 2.399786 0.692890 3.092675 0
 2.199478 0.692994 2.892470 0
 1.998829 0.693274 2.692102 0
 1.797570 0.693937 2.491506 0
 1.595460 0.695187 2.290646 0
 1.392801 0.697140 2.089939 0
 1.190151 0.701374 1.891525 0
 0.982873 0.714229 1.697104 0
 0.904692 0.904113 1.808806 0
 0.875262 1.093654 1.968916 0
 0.872672 1.288373 2.161045 0
 0.871424 1.491271 2.362695 0
 0.868759 1.695209 2.563967 0
 0.867031 1.897566 2.764598 0
 0.866326 2.098787 2.965115 0
 0.866119 2.299415 3.165535 0
 0.866070 2.499735 3.365807 0
 0.866050 2.699891 3.565946 0
 0.866037 2.899961 3.766006 0
 0.866029 3.099989 3.966026 0
 0.866026 3.299998 4.166036 0
 0.866025 3.500000 4.366040 0
 0.866025 3.700000 4.566040 0
 0.866025 3.900000 4.766043 0
 0.866025 4.100000 4.966045 0
 0.866025 4.300000 5.166045 0
 0.866025 4.500000 5.366044 0
 0.866025 4.700000 5.566045 0
 0.866025 4.900000 5.766042 0
 0.866025 5.100000 5.966040 0
 0.866025 5.300000 6.166040 0
 0.866025 5.500000 6.366039 0
 0.866025 5.700000 6.566037 0
 0.866025 5.900000 6.766035 0
 0.866025 6.100000 6.966033 0
 0.866025 6.300000 7.166031 0
 0.866025 6.500000 7.366025 0
 0.866026 6.700000 7.566022 0
 0.866029 6.900002 7.766024 0
 0.866039 7.100008 7.966039 0
 0.866061 7.300032 8.166080 0
 0.866084 7.500082 8.366152 0
 0.866058 7.700128 8.566171 0
 0.865936 7.900033 8.765957 0
 0.865847 8.099525 8.965362 0
 0.866400 8.298420 9.164813 0
 0.868979 8.497291 9.366265 0
 0.875921 8.699565 9.575484 0
 0.877405 8.904689 9.782095 0
 0.891755 9.125154 10.016907 0