TITLE      =  "2D FE Unstructured grid data" 
VARIABLES = "X", "Y", "U", "Dom" 
ZONE T="P1", F=FEPOINT, N= 776 E= 1444  ET=TRIANGLE 
 0.000000 0.000000 0.000000 1
 0.087327 0.087323 0.174650 1
 0.000000 0.200000 0.200000 1
 0.164068 0.294556 0.458625 1
 0.000000 0.400000 0.400000 1
 0.175415 0.489017 0.664433 1
 0.000000 0.600000 0.600000 1
 0.175187 0.691607 0.866795 1
 0.000000 0.800000 0.800000 1
 0.175773 0.893440 1.069215 1
 0.000000 1.000000 1.000000 1
 0.175430 1.095728 1.271159 1
 0.000000 1.200000 1.200000 1
 0.174509 1.297629 1.472139 1
 0.000000 1.400000 1.400000 1
 0.173791 1.498816 1.672607 1
 0.000000 1.600000 1.600000 1
 0.173419 1.699468 1.872888 1
 0.000000 1.800000 1.800000 1
 0.173268 1.899793 2.073064 1
 0.000000 2.000000 2.000000 1
 0.173220 2.099933 2.273155 1
 0.000000 2.200000 2.200000 1
 0.173207 2.299983 2.473192 1
 0.000000 2.400000 2.400000 1
 0.173205 2.499997 2.673202 1
 0.000000 2.600000 2.600000 1
 0.173205 2.700000 2.873207 1
 0.000000 2.800000 2.800000 1
 0.173205 2.900000 3.073208 1
 0.000000 3.000000 3.000000 1
 0.173205 3.100000 3.273210 1
 0.000000 3.200000 3.200000 1
 0.173205 3.300000 3.473210 1
 0.000000 3.400000 3.400000 1
 0.173205 3.500000 3.673211 1
 0.000000 3.600000 3.600000 1
 0.173205 3.700000 3.873212 1
 0.000000 3.800000 3.800000 1
 0.173205 3.900000 4.073212 1
 0.000000 4.000000 4.000000 1
 0.173205 4.100000 4.273210 1
 0.000000 4.200000 4.200000 1
 0.173205 4.300000 4.473212 1
 0.000000 4.400000 4.400000 1
 0.173205 4.500000 4.673213 1
 0.000000 4.600000 4.600000 1
 0.173205 4.700000 4.873210 1
 0.000000 4.800000 4.800000 1
 0.173205 4.900000 5.073208 1
 0.000000 5.000000 5.000000 1
 5.000000 0.000000 5.000000 1
 5.200000 0.000000 5.200000 1
 5.100000 0.173205 5.273209 1
 4.800000 0.000000 4.800000 1
 4.900000 0.173205 5.073209 1
 4.600000 0.000000 4.600000 1
 4.700000 0.173205 4.873209 1
 4.400000 0.000000 4.400000 1
 4.500000 0.173205 4.673208 1
 4.200000 0.000000 4.200000 1
 4.300000 0.173205 4.473208 1
 4.000000 0.000000 4.000000 1
 4.100000 0.173205 4.273206 1
 3.800000 0.000000 3.800000 1
 3.900000 0.173205 4.073212 1
 3.600000 0.000000 3.600000 1
 3.700000 0.173205 3.873210 1
 3.400000 0.000000 3.400000 1
 3.500000 0.173205 3.673210 1
 3.200000 0.000000 3.200000 1
 3.300000 0.173205 3.473206 1
 3.000000 0.000000 3.000000 1
 3.100000 0.173205 3.273208 1
 2.800000 0.000000 2.800000 1
 2.900000 0.173205 3.073207 1
 2.600000 0.000000 2.600000 1
 2.700000 0.173205 2.873207 1
 2.400000 0.000000 2.400000 1
 2.499997 0.173206 2.673205 1
 2.200000 0.000000 2.200000 1
 2.299983 0.173208 2.473192 1
 2.000000 0.000000 2.000000 1
 2.099934 0.173219 2.273156 1
 1.800000 0.000000 1.800000 1
 1.899802 0.173259 2.073060 1
 1.600000 0.000000 1.600000 1
 1.699498 0.173389 1.872888 1
 1.400000 0.000000 1.400000 1
 1.498881 0.173726 1.672606 1
 1.200000 0.000000 1.200000 1
 1.297737 0.174401 1.472138 1
 1.000000 0.000000 1.000000 1
 1.095870 0.175288 1.271160 1
 0.800000 0.000000 0.800000 1
 0.893593 0.175620 1.069214 1
 0.600000 0.000000 0.600000 1
 0.691741 0.175052 0.866793 1
 0.400000 0.000000 0.400000 1
 0.489115 0.175317 0.664432 1
 0.200000 0.000000 0.200000 1
 0.294610 0.164014 0.458625 1
 0.149248 0.149227 0.298475 1
 0.173205 5.100000 5.273207 1
 0.364719 0.364563 0.729284 1
 0.348253 0.582570 0.930825 1
 0.351911 0.783551 1.135463 1
 0.352893 0.988529 1.341425 1
 0.350517 1.193471 1.543989 1
 0.348400 1.396510 1.744911 1
 0.347229 1.598247 1.945477 1
 0.346699 1.799212 2.145913 1
 0.346493 1.999698 2.346194 1
 0.346428 2.199904 2.546336 1
 0.346412 2.399976 2.746391 1
 0.346410 2.599996 2.946409 1
 0.346410 2.799999 3.146414 1
 0.346410 3.000000 3.346417 1
 0.346410 3.200000 3.546418 1
 0.346410 3.400000 3.746419 1
 0.346410 3.600000 3.946423 1
 0.346410 3.800000 4.146421 1
 0.346410 4.000000 4.346419 1
 0.346410 4.200000 4.546422 1
 0.346410 4.400000 4.746421 1
 0.346410 4.600000 4.946421 1
 0.346410 4.800000 5.146419 1
 0.346410 5.000000 5.346419 1
 5.000000 0.346410 5.346412 1
 4.800000 0.346410 5.146413 1
 4.600000 0.346410 4.946416 1
 4.400000 0.346410 4.746418 1
 4.200000 0.346410 4.546417 1
 4.000000 0.346410 4.346416 1
 3.800000 0.346410 4.146420 1
 3.600000 0.346410 3.946419 1
 3.400000 0.346410 3.746414 1
 3.200000 0.346410 3.546414 1
 3.000000 0.346410 3.346413 1
 2.799999 0.346411 3.146413 1
 2.599994 0.346412 2.946409 1
 2.399972 0.346417 2.746391 1
 2.199898 0.346434 2.546335 1
 1.999698 0.346494 2.346195 1
 1.799239 0.346673 2.145913 1
 1.598330 0.347146 1.945477 1
 1.396678 0.348232 1.744910 1
 1.193725 0.350263 1.543989 1
 0.988833 0.352589 1.341425 1
 0.783846 0.351615 1.135463 1
 0.582808 0.348015 0.930825 1
 0.497809 0.497512 0.995323 1
 0.524303 0.667888 1.192194 1
 0.535935 0.875688 1.411626 1
 0.529597 1.087411 1.617010 1
 0.524426 1.292970 1.817398 1
 0.521805 1.495965 2.017772 1
 0.520541 1.697896 2.218438 1
 0.519944 1.899053 2.419001 1
 0.519704 2.099636 2.619345 1
 0.519631 2.299881 2.819515 1
 0.519616 2.499967 3.019587 1
 0.519615 2.699993 3.219613 1
 0.519615 2.899999 3.419622 1
 0.519615 3.100000 3.619623 1
 0.519615 3.300000 3.819629 1
 0.519615 3.500000 4.019629 1
 0.519615 3.700000 4.219632 1
 0.519615 3.900000 4.419631 1
 0.519615 4.100000 4.619632 1
 0.519615 4.300000 4.819632 1
 0.519615 4.500000 5.019632 1
 0.519615 4.700000 5.219631 1
 0.519615 4.900000 5.419625 1
 4.900000 0.519615 5.419622 1
 4.700000 0.519615 5.219624 1
 4.500000 0.519615 5.019629 1
 4.300000 0.519615 4.819627 1
 4.100000 0.519615 4.619629 1
 3.900000 0.519615 4.419631 1
 3.700000 0.519615 4.219628 1
 3.500000 0.519615 4.019626 1
 3.300000 0.519615 3.819622 1
 3.100000 0.519615 3.619622 1
 2.899998 0.519616 3.419620 1
 2.699988 0.519620 3.219612 1
 2.499955 0.519628 3.019586 1
 2.299857 0.519655 2.819515 1
 2.099603 0.519737 2.619343 1
 1.899034 0.519963 2.418999 1
 1.697936 0.520501 2.218439 1
 1.496118 0.521652 2.017771 1
 1.293265 0.524131 1.817398 1
 1.087824 0.529184 1.617011 1
 0.876140 0.535483 1.411626 1
 0.668282 0.523908 1.192193 1
 0.519615 5.100000 5.619627 1
 5.100000 0.519615 5.619624 1
 0.743781 0.743251 1.487035 1
 0.714766 0.982336 1.697104 1
 0.701785 1.189739 1.891526 1
 0.697349 1.392592 2.089944 1
 0.695211 1.595436 2.290650 1
 0.693850 1.797657 2.491511 1
 0.693159 1.998944 2.692107 1
 0.692903 2.199569 2.892476 1
 0.692837 2.399840 3.092681 1
 0.692825 2.599946 3.292776 1
 0.692823 2.799984 3.492815 1
 0.692821 2.999996 3.692826 1
 0.692821 3.199999 3.892832 1
 0.692820 3.400000 4.092836 1
 0.692820 3.600000 4.292836 1
 0.692820 3.800000 4.492840 1
 0.692820 4.000000 4.692841 1
 0.692820 4.200000 4.892842 1
 0.692820 4.400000 5.092841 1
 0.692820 4.600000 5.292836 1
 0.692820 4.800000 5.492837 1
 0.692820 5.000000 5.692835 1
 5.000000 0.692820 5.692827 1
 4.800000 0.692820 5.492833 1
 4.600000 0.692820 5.292836 1
 4.400000 0.692820 5.092835 1
 4.200000 0.692820 4.892836 1
 4.000000 0.692820 4.692838 1
 3.800000 0.692820 4.492835 1
 3.600000 0.692820 4.292833 1
 3.400000 0.692820 4.092829 1
 3.199999 0.692821 3.892828 1
 2.999994 0.692823 3.692824 1
 2.799976 0.692830 3.492813 1
 2.599922 0.692849 3.292775 1
 2.399786 0.692890 3.092679 1
 2.199478 0.692994 2.892474 1
 1.998829 0.693274 2.692105 1
 1.797570 0.693937 2.491509 1
 1.595460 0.695187 2.290647 1
 1.392801 0.697140 2.089942 1
 1.190151 0.701374 1.891527 1
 0.982873 0.714229 1.697105 1
 0.904692 0.904113 1.808808 1
 0.875262 1.093654 1.968918 1
 0.872672 1.288373 2.161047 1
 0.871424 1.491271 2.362697 1
 0.868759 1.695209 2.563970 1
 0.867031 1.897566 2.764600 1
 0.866326 2.098787 2.965117 1
 0.866119 2.299415 3.165539 1
 0.866070 2.499735 3.365812 1
 0.866050 2.699891 3.565949 1
 0.866037 2.899961 3.766007 1
 0.866029 3.099989 3.966030 1
 0.866026 3.299998 4.166038 1
 0.866025 3.500000 4.366045 1
 0.866025 3.700000 4.566046 1
 0.866025 3.900000 4.766047 1
 0.866025 4.100000 4.966048 1
 0.866025 4.300000 5.166047 1
 0.866025 4.500000 5.366049 1
 0.866025 4.700000 5.566048 1
 0.866025 4.900000 5.766047 1
 4.900000 0.866025 5.766040 1
 4.700000 0.866025 5.566041 1
 4.500000 0.866025 5.366044 1
 4.300000 0.866025 5.166045 1
 4.100000 0.866025 4.966040 1
 3.900000 0.866025 4.766044 1
 3.700000 0.866025 4.566041 1
 3.500000 0.866025 4.366041 1
 3.299998 0.866026 4.166034 1
 3.099987 0.866030 3.966026 1
 2.899952 0.866046 3.766004 1
 2.699857 0.866084 3.565947 1
 2.499648 0.866157 3.365809 1
 2.299244 0.866290 3.165537 1
 2.098526 0.866586 2.965114 1
 1.897262 0.867335 2.764598 1
 1.694964 0.869005 2.563970 1
 1.491213 0.871483 2.362697 1
 1.288591 0.872455 2.161047 1
 1.094124 0.874793 1.968920 1
 0.866025 5.100000 5.966043 1
 5.100000 0.866025 5.966040 1
 1.018832 1.018379 2.037214 1
 1.041813 1.179793 2.221608 1
 1.051907 1.382795 2.434704 1
 1.045834 1.591803 2.637638 1
 1.041593 1.795566 2.837162 1
 1.040010 1.997238 3.037252 1
 1.039571 2.198299 3.237874 1
 1.039447 2.399035 3.438487 1
 1.039374 2.599509 3.638889 1
 1.039306 2.799782 3.839096 1
 1.039260 2.999919 4.039189 1
 1.039239 3.199976 4.239227 1
 1.039232 3.399995 4.439244 1
 1.039231 3.599999 4.639249 1
 1.039230 3.800000 4.839256 1
 1.039230 4.000000 5.039256 1
 1.039230 4.200000 5.239258 1
 1.039230 4.400000 5.439256 1
 1.039230 4.600000 5.639256 1
 1.039230 4.800000 5.839255 1
 1.039230 5.000000 6.039250 1
 5.000000 1.039230 6.039247 1
 4.800000 1.039230 5.839250 1
 4.600000 1.039230 5.639246 1
 4.400000 1.039230 5.439245 1
 4.200000 1.039230 5.239249 1
 4.000000 1.039230 5.039250 1
 3.800000 1.039230 4.839248 1
 3.599999 1.039230 4.639245 1
 3.399995 1.039232 4.439242 1
 3.199976 1.039239 4.239227 1
 2.999912 1.039267 4.039187 1
 2.799748 1.039341 3.839096 1
 2.599402 1.039480 3.638886 1
 2.398795 1.039687 3.438486 1
 2.197882 1.039987 3.237872 1
 1.996660 1.040587 3.037249 1
 1.794932 1.042226 2.837159 1
 1.591289 1.046349 2.637638 1
 1.382576 1.052126 2.434703 1
 1.179966 1.041640 2.221608 1
 1.255007 1.255433 2.510442 1
 1.227789 1.490121 2.717910 1
 1.216409 1.694494 2.910905 1
 1.213714 1.894848 3.108566 1
 1.213291 2.095873 3.309167 1
 1.213169 2.297191 3.510362 1
 1.213006 2.498325 3.711334 1
 1.212784 2.699132 3.911921 1
 1.212597 2.899615 4.112220 1
 1.212491 3.099857 4.312358 1
 1.212449 3.299958 4.512420 1
 1.212438 3.499990 4.712445 1
 1.212436 3.699999 4.912457 1
 1.212436 3.900000 5.112462 1
 1.212436 4.100000 5.312462 1
 1.212436 4.300000 5.512465 1
 1.212436 4.500000 5.712464 1
 1.212436 4.700000 5.912462 1
 1.212436 4.900000 6.112461 1
 4.900000 1.212436 6.112457 1
 4.700000 1.212436 5.912454 1
 4.500000 1.212436 5.712456 1
 4.300000 1.212436 5.512455 1
 4.100000 1.212436 5.312456 1
 3.900000 1.212436 5.112455 1
 3.699999 1.212436 4.912454 1
 3.499992 1.212437 4.712444 1
 3.299960 1.212447 4.512419 1
 3.099859 1.212489 4.312357 1
 2.899597 1.212616 4.112220 1
 2.699040 1.212877 3.911921 1
 2.498069 1.213261 3.711332 1
 2.296674 1.213685 3.510360 1
 2.095055 1.214109 3.309167 1
 1.893812 1.214750 3.108562 1
 1.693428 1.217475 2.910904 1
 1.489260 1.228650 2.717909 1
 1.212436 5.100000 6.312463 1
 5.100000 1.212436 6.312459 1
 1.413810 1.415033 2.828843 1
 1.386281 1.600956 2.987238 1
 1.385638 1.791814 3.177452 1
 1.387263 1.991152 3.378416 1
 1.387521 2.193173 3.580694 1
 1.387376 2.395406 3.782783 1
 1.386863 2.597319 3.984185 1
 1.386290 2.798646 4.184940 1
 1.385907 2.999408 4.385322 1
 1.385725 3.199780 4.585516 1
 1.385661 3.399933 4.785607 1
 1.385644 3.599984 4.985646 1
 1.385641 3.799997 5.185658 1
 1.385641 4.000000 5.385667 1
 1.385641 4.200000 5.585666 1
 1.385641 4.400000 5.785666 1
 1.385641 4.600000 5.985668 1
 1.385641 4.800000 6.185668 1
 1.385641 5.000000 6.385668 1
 5.000000 1.385641 6.385664 1
 4.800000 1.385641 6.185661 1
 4.600000 1.385641 5.985660 1
 4.400000 1.385641 5.785660 1
 4.200000 1.385641 5.585660 1
 4.000000 1.385641 5.385660 1
 3.799998 1.385641 5.185657 1
 3.599986 1.385643 4.985643 1
 3.399940 1.385655 4.785604 1
 3.199795 1.385710 4.585514 1
 2.999422 1.385893 4.385323 1
 2.798613 1.386324 4.184942 1
 2.597134 1.387048 3.984186 1
 2.394919 1.387862 3.782781 1
 2.192274 1.388420 3.580693 1
 1.989850 1.388565 3.378415 1
 1.790279 1.387172 3.177451 1
 1.599464 1.387774 2.987237 1
 1.385641 5.200000 6.585662 1
 5.200000 1.385641 6.585662 1
 1.526350 1.528089 3.054438 1
 1.549493 1.685172 3.234664 1
 1.562431 1.881507 3.443937 1
 1.562629 2.085799 3.648427 1
 1.563078 2.289425 3.852502 1
 1.562317 2.493238 4.055554 1
 1.560908 2.696254 4.257162 1
 1.559807 2.898145 4.457959 1
 1.559211 3.099183 4.658401 1
 1.558960 3.299690 4.858663 1
 1.558875 3.499902 5.058792 1
 1.558851 3.699975 5.258845 1
 1.558847 3.899996 5.458864 1
 1.558846 4.099999 5.658866 1
 1.558846 4.300000 5.858870 1
 1.558846 4.500000 6.058867 1
 1.558846 4.700000 6.258873 1
 1.558846 4.900000 6.458870 1
 1.558846 5.100000 6.658871 1
 5.100000 1.558846 6.658867 1
 4.900000 1.558846 6.458866 1
 4.700000 1.558846 6.258867 1
 4.500000 1.558846 6.058860 1
 4.300000 1.558846 5.858863 1
 4.099999 1.558846 5.658861 1
 3.899996 1.558846 5.458859 1
 3.699978 1.558849 5.258843 1
 3.499912 1.558864 5.058788 1
 3.299718 1.558932 4.858659 1
 3.099237 1.559158 4.658401 1
 2.898202 1.559751 4.457955 1
 2.696223 1.560940 4.257165 1
 2.492949 1.562607 4.055556 1
 2.288685 1.563819 3.852503 1
 2.084512 1.563916 3.648426 1
 1.879792 1.564146 3.443935 1
 1.683303 1.551363 3.234664 1
 1.558846 5.300000 6.858867 1
 5.300000 1.558846 6.858866 1
 1.753661 1.755524 3.509182 1
 1.736856 1.976105 3.712960 1
 1.740183 2.178912 3.919094 1
 1.740562 2.385413 4.125975 1
 1.737502 2.591534 4.329036 1
 1.734812 2.795401 4.530215 1
 1.733257 2.997668 4.730929 1
 1.732511 3.198942 4.931460 1
 1.732201 3.399587 5.131802 1
 1.732091 3.599865 5.331970 1
 1.732059 3.799964 5.532040 1
 1.732052 3.999993 5.732066 1
 1.732051 4.199999 5.932071 1
 1.732051 4.400000 6.132075 1
 1.732051 4.600000 6.332076 1
 1.732051 4.800000 6.532078 1
 1.732051 5.000000 6.732077 1
 1.732051 5.200000 6.932075 1
 5.200000 1.732051 6.932069 1
 5.000000 1.732051 6.732072 1
 4.800000 1.732051 6.532069 1
 4.600000 1.732051 6.332070 1
 4.400000 1.732051 6.132066 1
 4.199999 1.732051 5.932064 1
 3.999993 1.732051 5.732056 1
 3.799968 1.732056 5.532037 1
 3.599878 1.732077 5.331967 1
 3.399626 1.732161 5.131794 1
 3.199031 1.732421 4.931458 1
 2.997818 1.733107 4.730929 1
 2.795563 1.734651 4.530216 1
 2.591559 1.737477 4.329036 1
 2.385063 1.740912 4.125973 1
 2.177982 1.741112 3.919093 1
 1.974583 1.738378 3.712959 1
 1.888216 1.889735 3.777948 1
 1.914438 2.061578 3.976012 1
 1.925266 2.270957 4.196220 1
 1.917839 2.484147 4.401984 1
 1.911728 2.690839 4.602568 1
 1.908412 2.894665 4.803077 1
 1.906691 3.097172 5.003868 1
 1.905827 3.298693 5.204528 1
 1.905448 3.499480 5.404942 1
 1.905309 3.699824 5.605146 1
 1.905268 3.899951 5.805235 1
 1.905258 4.099989 6.005267 1
 1.905256 4.299998 6.205275 1
 1.905256 4.500000 6.405278 1
 1.905256 4.700000 6.605282 1
 1.905256 4.900000 6.805280 1
 1.905256 5.100000 7.005280 1
 5.100000 1.905256 7.005276 1
 4.900000 1.905256 6.805274 1
 4.700000 1.905256 6.605275 1
 4.500000 1.905256 6.405273 1
 4.299998 1.905256 6.205269 1
 4.099990 1.905257 6.005260 1
 3.899955 1.905264 5.805228 1
 3.699840 1.905293 5.605144 1
 3.499527 1.905400 5.404935 1
 3.298807 1.905713 5.204528 1
 3.097392 1.906471 5.003866 1
 2.894997 1.908081 4.803077 1
 2.691190 1.911376 4.602563 1
 2.484311 1.917675 4.401983 1
 2.270653 1.925570 4.196219 1
 2.060597 1.915418 3.976012 1
 1.905256 5.300000 7.205281 1
 2.135760 2.135899 4.271655 1
 2.104960 2.377002 4.481958 1
 2.090590 2.585908 4.676497 1
 2.085064 2.789966 4.875029 1
 2.082110 2.993779 5.075887 1
 2.080192 3.196719 5.276916 1
 2.079153 3.398481 5.477643 1
 2.078700 3.599380 5.678093 1
 2.078535 3.799781 5.878332 1
 2.078482 3.999936 6.078435 1
 2.078466 4.199985 6.278471 1
 2.078462 4.399997 6.478479 1
 2.078461 4.600000 6.678485 1
 2.078461 4.800000 6.878487 1
 2.078461 5.000000 7.078486 1
 2.078461 5.200000 7.278483 1
 5.000000 2.078461 7.078479 1
 4.800000 2.078461 6.878479 1
 4.600000 2.078461 6.678477 1
 4.399998 2.078462 6.478476 1
 4.199987 2.078465 6.278464 1
 3.999942 2.078475 6.078428 1
 3.799801 2.078515 5.878325 1
 3.599434 2.078646 5.678088 1
 3.398609 2.079026 5.477643 1
 3.196977 2.079934 5.276917 1
 2.994213 2.081675 5.075890 1
 2.790560 2.084471 4.875028 1
 2.586526 2.089971 4.676495 1
 2.377388 2.104573 4.481960 1
 5.200000 2.078461 7.278480 1
 2.297137 2.296457 4.593590 1
 2.266043 2.487662 4.753702 1
 2.262109 2.683799 4.945903 1
 2.259681 2.888058 5.147741 1
 2.256066 3.093198 5.349270 1
 2.253646 3.296485 5.550138 1
 2.252471 3.498326 5.750808 1
 2.251976 3.699291 5.951281 1
 2.251779 3.899743 6.151538 1
 2.251704 4.099922 6.351643 1
 2.251678 4.299981 6.551681 1
 2.251669 4.499996 6.751691 1
 2.251667 4.699999 6.951692 1
 2.251666 4.900000 7.151692 1
 2.251666 5.100000 7.351694 1
 5.100000 2.251666 7.351686 1
 4.900000 2.251666 7.151686 1
 4.700000 2.251666 6.951685 1
 4.499998 2.251667 6.751683 1
 4.299985 2.251673 6.551671 1
 4.099934 2.251692 6.351640 1
 3.899770 2.251751 6.151535 1
 3.699354 2.251912 5.951277 1
 3.498463 2.252333 5.750805 1
 3.296756 2.253375 5.550137 1
 3.093670 2.255594 5.349266 1
 2.888762 2.258976 5.147739 1
 2.684678 2.261230 4.945905 1
 2.488550 2.265155 4.753702 1
 2.411478 2.410436 4.821910 1
 2.433464 2.572872 5.006334 1
 2.442241 2.777406 5.219647 1
 2.434824 2.988160 5.422986 1
 2.429480 3.193494 5.622981 1
 2.426994 3.396388 5.823393 1
 2.425862 3.598193 6.024069 1
 2.425308 3.799222 6.224547 1
 2.425049 3.999711 6.424779 1
 2.424937 4.199905 6.624864 1
 2.424893 4.399971 6.824886 1
 2.424877 4.599992 7.024895 1
 2.424872 4.799998 7.224896 1
 2.424871 5.000000 7.424897 1
 5.000000 2.424871 7.424889 1
 4.799999 2.424871 7.224889 1
 4.599996 2.424873 7.024885 1
 4.399982 2.424882 6.824881 1
 4.199931 2.424911 6.624859 1
 3.999761 2.424999 6.424772 1
 3.799312 2.425218 6.224542 1
 3.598354 2.425700 6.024063 1
 3.396673 2.426709 5.823393 1
 3.193966 2.429008 5.622981 1
 2.988868 2.434115 5.422987 1
 2.778346 2.441301 5.219649 1
 2.573951 2.432385 5.006334 1
 2.424871 5.200000 7.624891 1
 2.648262 2.647236 5.295498 1
 2.619244 2.884385 5.503631 1
 2.606478 3.091104 5.697587 1
 2.602436 3.293624 5.896067 1
 2.600625 3.496181 6.096817 1
 2.599405 3.698123 6.297542 1
 2.598689 3.899182 6.497890 1
 2.598339 4.099661 6.698021 1
 2.598183 4.299863 6.898071 1
 2.598115 4.499947 7.098083 1
 2.598088 4.699982 7.298092 1
 2.598079 4.899995 7.498095 1
 2.598078 5.099999 7.698101 1
 4.899997 2.598078 7.498092 1
 4.699988 2.598081 7.298087 1
 4.499968 2.598094 7.098079 1
 4.299912 2.598133 6.898063 1
 4.099755 2.598246 6.698018 1
 3.899334 2.598537 6.497886 1
 3.698352 2.599176 6.297537 1
 3.496516 2.600291 6.096818 1
 3.294110 2.601950 5.896067 1
 3.091786 2.605796 5.697586 1
 2.885270 2.618359 5.503632 1
 2.808132 2.807213 5.615347 1
 2.779400 2.995999 5.775403 1
 2.777545 3.190280 5.967830 1
 2.776947 3.392756 6.169711 1
 2.774630 3.596229 6.370874 1
 2.772931 3.798154 6.571101 1
 2.772066 3.999056 6.771140 1
 2.771655 4.199502 6.971179 1
 2.771452 4.399749 7.171222 1
 2.771350 4.599888 7.371261 1
 2.771303 4.799959 7.571282 1
 2.771289 4.999989 7.771299 1
 4.799970 2.771295 7.571280 1
 4.599919 2.771318 7.371252 1
 4.399827 2.771373 7.171214 1
 4.199659 2.771497 6.971169 1
 3.999314 2.771808 6.771136 1
 3.798517 2.772568 6.571098 1
 3.596696 2.774163 6.370869 1
 3.393331 2.776373 6.169714 1
 3.190976 2.776849 5.967830 1
 2.996826 2.778574 5.775401 1
 2.771296 5.200000 7.971315 1
 2.922392 2.921528 5.843925 1
 2.946249 3.082691 6.028945 1
 2.957400 3.285266 6.242673 1
 2.952061 3.493652 6.445724 1
 2.948034 3.696757 6.644808 1
 2.946264 3.897863 6.844143 1
 2.945481 4.098550 7.044050 1
 2.945043 4.299105 7.244169 1
 2.944766 4.499521 7.444310 1
 2.944603 4.699786 7.644413 1
 2.944527 4.899924 7.844474 1
 2.944517 5.099982 8.044517 1
 4.699821 2.944566 7.644402 1
 4.499619 2.944663 7.444297 1
 4.299323 2.944820 7.244155 1
 4.098934 2.945094 7.044042 1
 3.898422 2.945704 6.844140 1
 3.697459 2.947331 6.644802 1
 3.494440 2.951274 6.445722 1
 3.286091 2.956575 6.242675 1
 3.083534 2.945406 6.028945 1
 3.160048 3.159053 6.319109 1
 3.134210 3.392973 6.527193 1
 3.123370 3.596509 6.719895 1
 3.120593 3.796051 6.916662 1
 3.119744 3.996455 7.116218 1
 3.119122 4.197420 7.316564 1
 3.118584 4.398415 7.517019 1
 3.118154 4.599186 7.717362 1
 3.117883 4.799658 7.917565 1
 3.117774 4.999887 8.117681 1
 4.599276 3.118035 7.717322 1
 4.398651 3.118316 7.516981 1
 4.197893 3.118627 7.316538 1
 3.997207 3.118982 7.116200 1
 3.797036 3.119605 6.916651 1
 3.597621 3.122257 6.719890 1
 3.394090 3.133093 6.527194 1
 3.117818 5.199984 8.317824 1
 4.799702 3.117842 7.917556 1
 3.320134 3.318774 6.638919 1
 3.293481 3.503857 6.797353 1
 3.292979 3.693779 6.986776 1
 3.294220 3.892272 7.186511 1
 3.293897 4.093745 7.387663 1
 3.293229 4.295729 7.588979 1
 3.292369 4.497565 7.789958 1
 3.291625 4.698853 7.990503 1
 3.291190 4.899559 8.190775 1
 3.291081 5.099869 8.390969 1
 4.698908 3.291465 7.990390 1
 4.497745 3.292047 7.789809 1
 4.296191 3.292655 7.588862 1
 4.094584 3.292998 7.387595 1
 3.893475 3.292995 7.186482 1
 3.695218 3.291535 6.986766 1
 3.505338 3.292000 6.797350 1
 3.433333 3.431665 6.865011 1
 3.456739 3.587969 7.044724 1
 3.469515 3.783359 7.252891 1
 3.469277 3.986945 7.456240 1
 3.469207 4.190248 7.659474 1
 3.468053 4.393979 7.862054 1
 3.466382 4.596951 8.063356 1
 3.465122 4.798721 8.263869 1
 3.464505 4.999568 8.464097 1
 4.596994 3.465860 8.062872 1
 4.394298 3.467295 7.861608 1
 4.191016 3.468174 7.659205 1
 3.988198 3.467917 7.456128 1
 3.784965 3.467881 7.252861 1
 3.589710 3.454995 7.044720 1
 3.464505 5.199877 8.664403 1
 4.798752 3.464832 8.263597 1
 3.660070 3.658274 7.318364 1
 3.643328 3.878004 7.521350 1
 3.646447 4.080515 7.726978 1
 3.646656 4.287077 7.933752 1
 3.643370 4.493326 8.136718 1
 3.640344 4.697091 8.337456 1
 3.638500 4.898977 8.537498 1
 3.637753 5.099737 8.737513 1
 4.696891 3.639292 8.336195 1
 4.493366 3.641963 8.135345 1
 4.287665 3.645133 7.932813 1
 4.081683 3.644882 7.726581 1
 3.879602 3.641633 7.521249 1
 4.899042 3.637994 8.537048 1
 3.794060 3.792303 7.586380 1
 3.820471 3.964051 7.784539 1
 3.831830 4.173845 8.005694 1
 3.824738 4.387755 8.212510 1
 3.818118 4.594825 8.412967 1
 3.813838 4.798208 8.612064 1
 3.811523 4.999689 8.811234 1
 4.797530 3.811940 8.609483 1
 4.594291 3.815134 8.409438 1
 4.388085 3.821581 8.209679 1
 4.175085 3.829355 8.004453 1
 3.965717 3.818590 7.784322 1
 4.042418 4.039702 8.082146 1
 4.013954 4.282567 8.296540 1
 3.999677 4.493560 8.493257 1
 3.991608 4.698021 8.689649 1
 3.986436 4.900120 8.886577 1
 4.696011 3.986255 8.682278 1
 4.493102 3.992536 8.485653 1
 4.284352 4.008356 8.292727 1
 3.983922 5.100821 9.084764 1
 4.208342 4.202204 8.410566 1
 4.182033 4.398869 8.580922 1
 4.173604 4.599751 8.773376 1
 4.162862 4.802161 8.965037 1
 4.158014 5.002370 9.160399 1
 4.595987 4.159571 8.755572 1
 4.400958 4.167648 8.568624 1
 4.796943 4.157049 8.954002 1
 4.331014 4.318569 8.649599 1
 4.371658 4.498763 8.870438 1
 4.339408 4.709141 9.048564 1
 4.332259 4.905314 9.237589 1
 4.694493 4.329161 9.023667 1
 4.496460 4.328167 8.824637 1
 4.329537 5.104638 9.434189 1
 4.496521 4.641739 9.138271 1
 4.503991 4.810073 9.314074 1
 4.502879 5.005909 9.508799 1
 4.588579 4.498978 9.087567 1
 4.682240 4.694730 9.376980 1
 4.673819 4.906794 9.580622 1
 1 2 3 
 3 4 5 
 5 6 7 
 7 8 9 
 9 10 11 
 11 12 13 
 13 14 15 
 15 16 17 
 17 18 19 
 19 20 21 
 21 22 23 
 23 24 25 
 25 26 27 
 27 28 29 
 29 30 31 
 31 32 33 
 33 34 35 
 35 36 37 
 37 38 39 
 39 40 41 
 41 42 43 
 43 44 45 
 45 46 47 
 47 48 49 
 49 50 51 
 52 53 54 
 55 52 56 
 57 55 58 
 59 57 60 
 61 59 62 
 63 61 64 
 65 63 66 
 67 65 68 
 69 67 70 
 71 69 72 
 73 71 74 
 75 73 76 
 77 75 78 
 79 77 80 
 81 79 82 
 83 81 84 
 85 83 86 
 87 85 88 
 89 87 90 
 91 89 92 
 93 91 94 
 95 93 96 
 97 95 98 
 99 97 100 
 101 99 102 
 1 101 2 
 3 2 103 
 5 4 6 
 3 103 4 
 7 6 8 
 9 8 10 
 11 10 12 
 13 12 14 
 15 14 16 
 17 16 18 
 19 18 20 
 21 20 22 
 23 22 24 
 25 24 26 
 27 26 28 
 29 28 30 
 31 30 32 
 33 32 34 
 35 34 36 
 37 36 38 
 39 38 40 
 41 40 42 
 43 42 44 
 45 44 46 
 47 46 48 
 49 48 50 
 104 51 50 
 52 54 56 
 55 56 58 
 57 58 60 
 59 60 62 
 61 62 64 
 63 64 66 
 65 66 68 
 67 68 70 
 69 70 72 
 71 72 74 
 73 74 76 
 75 76 78 
 77 78 80 
 79 80 82 
 81 82 84 
 83 84 86 
 85 86 88 
 87 88 90 
 89 90 92 
 91 92 94 
 93 94 96 
 95 96 98 
 97 98 100 
 99 100 102 
 101 102 103 
 2 101 103 
 105 6 4 
 103 102 4 
 106 8 6 
 107 10 8 
 108 12 10 
 109 14 12 
 110 16 14 
 111 18 16 
 112 20 18 
 113 22 20 
 114 24 22 
 115 26 24 
 116 28 26 
 117 30 28 
 118 32 30 
 119 34 32 
 120 36 34 
 121 38 36 
 38 122 40 
 40 123 42 
 42 124 44 
 44 125 46 
 46 126 48 
 48 127 50 
 104 50 128 
 56 54 129 
 130 58 56 
 131 60 58 
 132 62 60 
 133 64 62 
 134 66 64 
 68 66 135 
 70 68 136 
 72 70 137 
 74 72 138 
 76 74 139 
 78 76 140 
 80 78 141 
 82 80 142 
 84 82 143 
 86 84 144 
 88 86 145 
 90 88 146 
 92 90 147 
 94 92 148 
 96 94 149 
 98 96 150 
 98 151 100 
 100 105 102 
 102 105 4 
 105 106 6 
 106 107 8 
 107 108 10 
 108 109 12 
 109 110 14 
 110 111 16 
 111 112 18 
 112 113 20 
 113 114 22 
 114 115 24 
 115 116 26 
 116 117 28 
 117 118 30 
 118 119 32 
 119 120 34 
 120 121 36 
 38 121 122 
 40 122 123 
 42 123 124 
 44 124 125 
 46 125 126 
 48 126 127 
 128 50 127 
 56 129 130 
 131 58 130 
 132 60 131 
 133 62 132 
 134 64 133 
 135 66 134 
 68 135 136 
 70 136 137 
 72 137 138 
 74 138 139 
 76 139 140 
 78 140 141 
 80 141 142 
 82 142 143 
 84 143 144 
 86 144 145 
 88 145 146 
 90 146 147 
 92 147 148 
 94 148 149 
 96 149 150 
 98 150 151 
 151 105 100 
 152 106 105 
 153 107 106 
 154 108 107 
 155 109 108 
 156 110 109 
 157 111 110 
 158 112 111 
 159 113 112 
 160 114 113 
 161 115 114 
 162 116 115 
 163 117 116 
 164 118 117 
 118 165 119 
 119 166 120 
 120 167 121 
 121 168 122 
 123 122 169 
 124 123 170 
 125 124 171 
 126 125 172 
 127 126 173 
 174 128 127 
 129 175 130 
 130 176 131 
 131 177 132 
 132 178 133 
 133 179 134 
 180 135 134 
 181 136 135 
 182 137 136 
 138 137 183 
 184 139 138 
 140 139 185 
 141 140 186 
 142 141 187 
 142 188 143 
 144 143 189 
 145 144 190 
 146 145 191 
 147 146 192 
 148 147 193 
 149 148 194 
 149 195 150 
 151 150 196 
 151 152 105 
 152 153 106 
 153 154 107 
 154 155 108 
 155 156 109 
 156 157 110 
 157 158 111 
 158 159 112 
 159 160 113 
 160 161 114 
 161 162 115 
 162 163 116 
 163 164 117 
 118 164 165 
 119 165 166 
 120 166 167 
 121 167 168 
 169 122 168 
 170 123 169 
 171 124 170 
 172 125 171 
 173 126 172 
 173 174 127 
 197 128 174 
 129 198 175 
 175 176 130 
 176 177 131 
 177 178 132 
 178 179 133 
 179 180 134 
 181 135 180 
 182 136 181 
 183 137 182 
 138 183 184 
 185 139 184 
 140 185 186 
 141 186 187 
 142 187 188 
 188 189 143 
 144 189 190 
 145 190 191 
 146 191 192 
 147 192 193 
 148 193 194 
 149 194 195 
 195 196 150 
 151 196 152 
 152 196 153 
 199 154 153 
 200 155 154 
 201 156 155 
 202 157 156 
 158 157 203 
 204 159 158 
 205 160 159 
 206 161 160 
 207 162 161 
 162 208 163 
 163 209 164 
 164 210 165 
 166 165 211 
 167 166 212 
 168 167 213 
 169 168 214 
 215 170 169 
 216 171 170 
 217 172 171 
 218 173 172 
 174 173 219 
 197 174 220 
 175 198 221 
 176 175 222 
 177 176 223 
 178 177 224 
 179 178 225 
 180 179 226 
 180 227 181 
 181 228 182 
 182 229 183 
 183 230 184 
 231 185 184 
 232 186 185 
 233 187 186 
 187 234 188 
 189 188 235 
 190 189 236 
 191 190 237 
 238 192 191 
 193 192 239 
 194 193 240 
 194 241 195 
 196 195 199 
 196 199 153 
 199 200 154 
 200 201 155 
 201 202 156 
 203 157 202 
 203 204 158 
 204 205 159 
 205 206 160 
 206 207 161 
 162 207 208 
 163 208 209 
 164 209 210 
 211 165 210 
 212 166 211 
 213 167 212 
 214 168 213 
 214 215 169 
 215 216 170 
 216 217 171 
 217 218 172 
 219 173 218 
 220 174 219 
 175 221 222 
 176 222 223 
 177 223 224 
 178 224 225 
 179 225 226 
 180 226 227 
 227 228 181 
 228 229 182 
 229 230 183 
 230 231 184 
 232 185 231 
 233 186 232 
 234 187 233 
 234 235 188 
 189 235 236 
 190 236 237 
 191 237 238 
 239 192 238 
 193 239 240 
 194 240 241 
 241 199 195 
 242 200 199 
 243 201 200 
 244 202 201 
 245 203 202 
 246 204 203 
 204 247 205 
 205 248 206 
 206 249 207 
 208 207 250 
 209 208 251 
 210 209 252 
 253 211 210 
 254 212 211 
 255 213 212 
 256 214 213 
 215 214 257 
 216 215 258 
 217 216 259 
 218 217 260 
 219 218 261 
 220 219 262 
 221 263 222 
 222 264 223 
 223 265 224 
 224 266 225 
 267 226 225 
 227 226 268 
 227 269 228 
 229 228 270 
 230 229 271 
 231 230 272 
 231 273 232 
 232 274 233 
 233 275 234 
 276 235 234 
 277 236 235 
 278 237 236 
 238 237 279 
 239 238 280 
 240 239 281 
 241 240 282 
 241 242 199 
 242 243 200 
 243 244 201 
 244 245 202 
 245 246 203 
 204 246 247 
 205 247 248 
 206 248 249 
 250 207 249 
 251 208 250 
 252 209 251 
 252 253 210 
 253 254 211 
 254 255 212 
 255 256 213 
 257 214 256 
 258 215 257 
 259 216 258 
 260 217 259 
 261 218 260 
 262 219 261 
 283 220 262 
 284 263 221 
 263 264 222 
 264 265 223 
 265 266 224 
 266 267 225 
 268 226 267 
 227 268 269 
 269 270 228 
 229 270 271 
 230 271 272 
 231 272 273 
 273 274 232 
 274 275 233 
 275 276 234 
 277 235 276 
 278 236 277 
 279 237 278 
 238 279 280 
 239 280 281 
 240 281 282 
 241 282 242 
 242 285 243 
 286 244 243 
 244 287 245 
 245 288 246 
 246 289 247 
 248 247 290 
 249 248 291 
 292 250 249 
 293 251 250 
 252 251 294 
 295 253 252 
 253 296 254 
 255 254 297 
 256 255 298 
 257 256 299 
 258 257 300 
 259 258 301 
 260 259 302 
 303 261 260 
 304 262 261 
 283 262 305 
 284 306 263 
 264 263 307 
 264 308 265 
 265 309 266 
 266 310 267 
 267 311 268 
 268 312 269 
 269 313 270 
 270 314 271 
 315 272 271 
 273 272 316 
 317 274 273 
 275 274 318 
 276 275 319 
 276 320 277 
 321 278 277 
 322 279 278 
 323 280 279 
 281 280 324 
 282 281 325 