TITLE      =  "2D FE Unstructured grid data" 
VARIABLES = "X", "Y", "U", "Dom" 
ZONE T="P1", F=FEPOINT, N= 778 E= 1448  ET=TRIANGLE 
 0.000000 0.000000 0.000000 0
 0.087327 0.087323 0.174651 0
 0.000000 0.200000 0.200000 0
 0.164068 0.294556 0.458624 0
 0.000000 0.400000 0.400000 0
 0.175415 0.489017 0.664432 0
 0.000000 0.600000 0.600000 0
 0.175187 0.691607 0.866793 0
 0.000000 0.800000 0.800000 0
 0.175773 0.893440 1.069213 0
 0.000000 1.000000 1.000000 0
 0.175430 1.095728 1.271159 0
 0.000000 1.200000 1.200000 0
 0.174509 1.297629 1.472139 0
 0.000000 1.400000 1.400000 0
 0.173791 1.498816 1.672608 0
 0.000000 1.600000 1.600000 0
 0.173419 1.699468 1.872888 0
 0.000000 1.800000 1.800000 0
 0.173268 1.899793 2.073063 0
 0.000000 2.000000 2.000000 0
 0.173220 2.099933 2.273154 0
 0.000000 2.200000 2.200000 0
 0.173207 2.299983 2.473191 0
 0.000000 2.400000 2.400000 0
 0.173205 2.499997 2.673205 0
 0.000000 2.600000 2.600000 0
 0.173205 2.700000 2.873206 0
 0.000000 2.800000 2.800000 0
 6.200000 0.000000 6.200000 0
 6.400000 0.000000 6.400000 0
 6.300000 0.173205 6.473207 0
 6.000000 0.000000 6.000000 0
 6.100000 0.173205 6.273206 0
 5.800000 0.000000 5.800000 0
 5.900000 0.173205 6.073205 0
 5.600000 0.000000 5.600000 0
 5.700000 0.173205 5.873207 0
 5.400000 0.000000 5.400000 0
 5.500000 0.173205 5.673210 0
 5.200000 0.000000 5.200000 0
 5.300000 0.173205 5.473207 0
 5.000000 0.000000 5.000000 0
 5.100000 0.173205 5.273208 0
 4.800000 0.000000 4.800000 0
 4.900000 0.173205 5.073209 0
 4.600000 0.000000 4.600000 0
 4.700000 0.173205 4.873211 0
 4.400000 0.000000 4.400000 0
 4.500000 0.173205 4.673207 0
 4.200000 0.000000 4.200000 0
 4.300000 0.173205 4.473209 0
 4.000000 0.000000 4.000000 0
 4.100000 0.173205 4.273207 0
 3.800000 0.000000 3.800000 0
 3.900000 0.173205 4.073211 0
 3.600000 0.000000 3.600000 0
 3.700000 0.173205 3.873210 0
 3.400000 0.000000 3.400000 0
 3.500000 0.173205 3.673206 0
 3.200000 0.000000 3.200000 0
 3.300000 0.173205 3.473208 0
 3.000000 0.000000 3.000000 0
 3.100000 0.173205 3.273206 0
 2.800000 0.000000 2.800000 0
 2.900000 0.173205 3.073206 0
 2.600000 0.000000 2.600000 0
 2.700000 0.173205 2.873206 0
 2.400000 0.000000 2.400000 0
 2.499997 0.173206 2.673203 0
 2.200000 0.000000 2.200000 0
 2.299983 0.173208 2.473190 0
 2.000000 0.000000 2.000000 0
 2.099934 0.173219 2.273153 0
 1.800000 0.000000 1.800000 0
 1.899802 0.173259 2.073061 0
 1.600000 0.000000 1.600000 0
 1.699498 0.173389 1.872888 0
 1.400000 0.000000 1.400000 0
 1.498881 0.173726 1.672608 0
 1.200000 0.000000 1.200000 0
 1.297737 0.174401 1.472139 0
 1.000000 0.000000 1.000000 0
 1.095870 0.175288 1.271159 0
 0.800000 0.000000 0.800000 0
 0.893593 0.175620 1.069213 0
 0.600000 0.000000 0.600000 0
 0.691741 0.175052 0.866793 0
 0.400000 0.000000 0.400000 0
 0.489115 0.175317 0.664432 0
 0.200000 0.000000 0.200000 0
 0.294610 0.164014 0.458624 0
 0.149248 0.149227 0.298476 0
 0.173205 2.900000 3.073208 0
 6.500000 0.173205 6.673207 0
 0.364719 0.364563 0.729282 0
 0.348253 0.582570 0.930823 0
 0.351911 0.783551 1.135463 0
 0.352893 0.988529 1.341424 0
 0.350517 1.193471 1.543989 0
 0.348400 1.396510 1.744912 0
 0.347229 1.598247 1.945476 0
 0.346699 1.799212 2.145912 0
 0.346493 1.999698 2.346193 0
 0.346428 2.199904 2.546335 0
 0.346412 2.399976 2.746391 0
 0.346410 2.599996 2.946409 0
 0.346410 2.799999 3.146415 0
 6.400000 0.346410 6.746413 0
 6.200000 0.346410 6.546413 0
 6.000000 0.346410 6.346413 0
 5.800000 0.346410 6.146418 0
 5.600000 0.346410 5.946414 0
 5.400000 0.346410 5.746414 0
 5.200000 0.346410 5.546413 0
 5.000000 0.346410 5.346413 0
 4.800000 0.346410 5.146419 0
 4.600000 0.346410 4.946416 0
 4.400000 0.346410 4.746417 0
 4.200000 0.346410 4.546418 0
 4.000000 0.346410 4.346416 0
 3.800000 0.346410 4.146418 0
 3.600000 0.346410 3.946416 0
 3.400000 0.346410 3.746414 0
 3.200000 0.346410 3.546414 0
 3.000000 0.346410 3.346413 0
 2.799999 0.346411 3.146411 0
 2.599994 0.346412 2.946407 0
 2.399972 0.346417 2.746390 0
 2.199898 0.346434 2.546335 0
 1.999698 0.346494 2.346192 0
 1.799239 0.346673 2.145914 0
 1.598330 0.347146 1.945476 0
 1.396678 0.348232 1.744911 0
 1.193725 0.350263 1.543990 0
 0.988833 0.352589 1.341424 0
 0.783846 0.351615 1.135463 0
 0.582808 0.348015 0.930823 0
 0.346410 3.000000 3.346416 0
 6.600000 0.346410 6.946411 0
 0.497809 0.497512 0.995322 0
 0.524303 0.667888 1.192192 0
 0.535935 0.875688 1.411625 0
 0.529597 1.087411 1.617010 0
 0.524426 1.292970 1.817397 0
 0.521805 1.495965 2.017771 0
 0.520541 1.697896 2.218438 0
 0.519944 1.899053 2.419000 0
 0.519704 2.099636 2.619343 0
 0.519631 2.299881 2.819516 0
 0.519616 2.499967 3.019586 0
 0.519615 2.699993 3.219613 0
 0.519615 2.899999 3.419621 0
 6.500000 0.519615 7.019619 0
 6.300000 0.519615 6.819619 0
 6.100000 0.519615 6.619622 0
 5.900000 0.519615 6.419623 0
 5.700000 0.519615 6.219620 0
 5.500000 0.519615 6.019622 0
 5.300000 0.519615 5.819623 0
 5.100000 0.519615 5.619626 0
 4.900000 0.519615 5.419624 0
 4.700000 0.519615 5.219623 0
 4.500000 0.519615 5.019625 0
 4.300000 0.519615 4.819624 0
 4.100000 0.519615 4.619627 0
 3.900000 0.519615 4.419626 0
 3.700000 0.519615 4.219624 0
 3.500000 0.519615 4.019623 0
 3.300000 0.519615 3.819621 0
 3.100000 0.519615 3.619620 0
 2.899998 0.519616 3.419617 0
 2.699988 0.519620 3.219610 0
 2.499955 0.519628 3.019583 0
 2.299857 0.519655 2.819514 0
 2.099603 0.519737 2.619340 0
 1.899034 0.519963 2.418998 0
 1.697936 0.520501 2.218437 0
 1.496118 0.521652 2.017771 0
 1.293265 0.524131 1.817397 0
 1.087824 0.529184 1.617010 0
 0.876140 0.535483 1.411625 0
 0.668282 0.523908 1.192191 0
 0.519615 3.100000 3.619624 0
 6.700000 0.519615 7.219616 0
 0.743781 0.743251 1.487034 0
 0.714766 0.982336 1.697104 0
 0.701785 1.189739 1.891526 0
 0.697349 1.392592 2.089943 0
 0.695211 1.595436 2.290648 0
 0.693850 1.797657 2.491507 0
 0.693159 1.998944 2.692106 0
 0.692903 2.199569 2.892475 0
 0.692837 2.399840 3.092680 0
 0.692825 2.599946 3.292776 0
 0.692823 2.799984 3.492816 0
 0.692821 2.999996 3.692827 0
 6.600000 0.692820 7.292820 0
 6.400000 0.692820 7.092824 0
 6.200000 0.692820 6.892831 0
 6.000000 0.692820 6.692832 0
 5.800000 0.692820 6.492834 0
 5.600000 0.692820 6.292832 0
 5.400000 0.692820 6.092834 0
 5.200000 0.692820 5.892835 0
 5.000000 0.692820 5.692832 0
 4.800000 0.692820 5.492835 0
 4.600000 0.692820 5.292834 0
 4.400000 0.692820 5.092834 0
 4.200000 0.692820 4.892833 0
 4.000000 0.692820 4.692832 0
 3.800000 0.692820 4.492832 0
 3.600000 0.692820 4.292830 0
 3.400000 0.692820 4.092830 0
 3.199999 0.692821 3.892826 0
 2.999994 0.692823 3.692823 0
 2.799976 0.692830 3.492812 0
 2.599922 0.692849 3.292774 0
 2.399786 0.692890 3.092678 0
 2.199478 0.692994 2.892472 0
 1.998829 0.693274 2.692103 0
 1.797570 0.693937 2.491506 0
 1.595460 0.695187 2.290647 0
 1.392801 0.697140 2.089941 0
 1.190151 0.701374 1.891526 0
 0.982873 0.714229 1.697105 0
 6.800000 0.692821 7.492821 0
 0.904692 0.904113 1.808806 0
 0.875262 1.093654 1.968917 0
 0.872672 1.288373 2.161046 0
 0.871424 1.491271 2.362695 0
 0.868759 1.695209 2.563969 0
 0.867031 1.897566 2.764599 0
 0.866326 2.098787 2.965117 0
 0.866119 2.299415 3.165538 0
 0.866070 2.499735 3.365811 0
 0.866050 2.699891 3.565950 0
 0.866037 2.899961 3.766009 0
 6.700001 0.866026 7.566028 0
 6.500000 0.866025 7.366031 0
 6.300000 0.866025 7.166035 0
 6.100000 0.866025 6.966036 0
 5.900000 0.866025 6.766038 0
 5.700000 0.866025 6.566041 0
 5.500000 0.866025 6.366040 0
 5.300000 0.866025 6.166041 0
 5.100000 0.866025 5.966040 0
 4.900000 0.866025 5.766040 0
 4.700000 0.866025 5.566040 0
 4.500000 0.866025 5.366039 0
 4.300000 0.866025 5.166042 0
 4.100000 0.866025 4.966042 0
 3.900000 0.866025 4.766039 0
 3.700000 0.866025 4.566040 0
 3.500000 0.866025 4.366038 0
 3.299998 0.866026 4.166034 0
 3.099987 0.866030 3.966026 0
 2.899952 0.866046 3.766006 0
 2.699857 0.866084 3.565947 0
 2.499648 0.866157 3.365809 0
 2.299244 0.866290 3.165536 0
 2.098526 0.866586 2.965112 0
 1.897262 0.867335 2.764598 0
 1.694964 0.869005 2.563969 0
 1.491213 0.871483 2.362696 0
 1.288591 0.872455 2.161046 0
 1.094124 0.874793 1.968918 0
 0.866029 3.099989 3.966029 0
 1.018832 1.018379 2.037213 0
 1.041813 1.179793 2.221606 0
 1.051907 1.382795 2.434701 0
 1.045834 1.591803 2.637639 0
 1.041593 1.795566 2.837161 0
 1.040010 1.997238 3.037250 0
 1.039571 2.198299 3.237873 0
 1.039447 2.399035 3.438486 0
 1.039374 2.599509 3.638888 0
 1.039306 2.799782 3.839098 0
 1.039260 2.999919 4.039189 0
 6.600001 1.039232 7.639236 0
 6.400000 1.039231 7.439239 0
 6.200000 1.039230 7.239244 0
 6.000000 1.039230 7.039244 0
 5.800000 1.039230 6.839246 0
 5.600000 1.039230 6.639246 0
 5.400000 1.039230 6.439249 0
 5.200000 1.039230 6.239248 0
 5.000000 1.039230 6.039247 0
 4.800000 1.039230 5.839248 0
 4.600000 1.039230 5.639246 0
 4.400000 1.039230 5.439248 0
 4.200000 1.039230 5.239248 0
 4.000000 1.039230 5.039247 0
 3.800000 1.039230 4.839245 0
 3.599999 1.039230 4.639243 0
 3.399995 1.039232 4.439240 0
 3.199976 1.039239 4.239226 0
 2.999912 1.039267 4.039186 0
 2.799748 1.039341 3.839093 0
 2.599402 1.039480 3.638886 0
 2.398795 1.039687 3.438483 0
 2.197882 1.039987 3.237870 0
 1.996660 1.040587 3.037248 0
 1.794932 1.042226 2.837157 0
 1.591289 1.046349 2.637636 0
 1.382576 1.052126 2.434703 0
 1.179966 1.041640 2.221606 0
 1.039239 3.199976 4.239228 0
 6.800006 1.039240 7.839245 0
 1.255007 1.255433 2.510441 0
 1.227789 1.490121 2.717909 0
 1.216409 1.694494 2.910904 0
 1.213714 1.894848 3.108564 0
 1.213291 2.095873 3.309167 0
 1.213169 2.297191 3.510363 0
 1.213006 2.498325 3.711334 0
 1.212784 2.699132 3.911922 0
 1.212597 2.899615 4.112220 0
 1.212491 3.099857 4.312359 0
 6.700010 1.212448 7.912462 0
 6.500002 1.212437 7.712443 0
 6.300000 1.212436 7.512447 0
 6.100000 1.212436 7.312450 0
 5.900000 1.212436 7.112453 0
 5.700000 1.212436 6.912450 0
 5.500000 1.212436 6.712454 0
 5.300000 1.212436 6.512455 0
 5.100000 1.212436 6.312454 0
 4.900000 1.212436 6.112456 0
 4.700000 1.212436 5.912454 0
 4.500000 1.212436 5.712455 0
 4.300000 1.212436 5.512455 0
 4.100000 1.212436 5.312455 0
 3.900000 1.212436 5.112451 0
 3.699999 1.212436 4.912448 0
 3.499992 1.212437 4.712442 0
 3.299960 1.212447 4.512418 0
 3.099859 1.212489 4.312356 0
 2.899597 1.212616 4.112221 0
 2.699040 1.212877 3.911920 0
 2.498069 1.213261 3.711332 0
 2.296674 1.213685 3.510360 0
 2.095055 1.214109 3.309166 0
 1.893812 1.214750 3.108562 0
 1.693428 1.217475 2.910902 0
 1.489260 1.228650 2.717909 0
 1.413810 1.415033 2.828841 0
 1.386281 1.600956 2.987236 0
 1.385638 1.791814 3.177452 0
 1.387263 1.991152 3.378417 0
 1.387521 2.193173 3.580695 0
 1.387376 2.395406 3.782784 0
 1.386863 2.597319 3.984185 0
 1.386290 2.798646 4.184941 0
 1.385907 2.999408 4.385323 0
 6.600016 1.385652 7.985670 0
 6.400004 1.385642 7.785655 0
 6.200001 1.385641 7.585653 0
 6.000000 1.385641 7.385656 0
 5.800000 1.385641 7.185658 0
 5.600000 1.385641 6.985662 0
 5.400000 1.385641 6.785660 0
 5.200000 1.385641 6.585660 0
 5.000000 1.385641 6.385659 0
 4.800000 1.385641 6.185658 0
 4.600000 1.385641 5.985658 0
 4.400000 1.385641 5.785655 0
 4.200000 1.385641 5.585656 0
 4.000000 1.385641 5.385657 0
 3.799998 1.385641 5.185655 0
 3.599986 1.385643 4.985642 0
 3.399940 1.385655 4.785606 0
 3.199795 1.385710 4.585512 0
 2.999422 1.385893 4.385322 0
 2.798613 1.386324 4.184940 0
 2.597134 1.387048 3.984185 0
 2.394919 1.387862 3.782780 0
 2.192274 1.388420 3.580694 0
 1.989850 1.388565 3.378416 0
 1.790279 1.387172 3.177449 0
 1.599464 1.387774 2.987237 0
 1.385725 3.199780 4.585516 0
 1.526350 1.528089 3.054438 0
 1.549493 1.685172 3.234665 0
 1.562431 1.881507 3.443937 0
 1.562629 2.085799 3.648428 0
 1.563078 2.289425 3.852503 0
 1.562317 2.493238 4.055557 0
 1.560908 2.696254 4.257166 0
 1.559807 2.898145 4.457957 0
 1.559211 3.099183 4.658404 0
 6.500026 1.558854 8.058886 0
 6.300006 1.558847 7.858860 0
 6.100001 1.558846 7.658856 0
 5.900000 1.558846 7.458861 0
 5.700000 1.558846 7.258863 0
 5.500000 1.558846 7.058864 0
 5.300000 1.558846 6.858866 0
 5.100000 1.558846 6.658864 0
 4.900000 1.558846 6.458865 0
 4.700000 1.558846 6.258863 0
 4.500000 1.558846 6.058863 0
 4.300000 1.558846 5.858860 0
 4.099999 1.558846 5.658859 0
 3.899996 1.558846 5.458854 0
 3.699978 1.558849 5.258840 0
 3.499912 1.558864 5.058789 0
 3.299718 1.558932 4.858658 0
 3.099237 1.559158 4.658401 0
 2.898202 1.559751 4.457957 0
 2.696223 1.560940 4.257166 0
 2.492949 1.562607 4.055556 0
 2.288685 1.563819 3.852504 0
 2.084512 1.563916 3.648427 0
 1.879792 1.564146 3.443937 0
 1.683303 1.551363 3.234664 0
 1.558960 3.299690 4.858662 0
 6.700077 1.558892 8.258974 0
 1.753661 1.755524 3.509185 0
 1.736856 1.976105 3.712960 0
 1.740183 2.178912 3.919094 0
 1.740562 2.385413 4.125975 0
 1.737502 2.591534 4.329041 0
 1.734812 2.795401 4.530216 0
 1.733257 2.997668 4.730930 0
 1.732511 3.198942 4.931460 0
 6.600117 1.732074 8.332195 0
 6.400039 1.732053 8.132093 0
 6.200009 1.732050 7.932066 0
 6.000001 1.732051 7.732062 0
 5.800000 1.732051 7.532066 0
 5.600000 1.732051 7.332069 0
 5.400000 1.732051 7.132066 0
 5.200000 1.732051 6.932069 0
 5.000000 1.732051 6.732068 0
 4.800000 1.732051 6.532068 0
 4.600000 1.732051 6.332066 0
 4.400000 1.732051 6.132065 0
 4.199999 1.732051 5.932063 0
 3.999993 1.732051 5.732054 0
 3.799968 1.732056 5.532033 0
 3.599878 1.732077 5.331964 0
 3.399626 1.732161 5.131795 0
 3.199031 1.732421 4.931458 0
 2.997818 1.733107 4.730927 0
 2.795563 1.734651 4.530215 0
 2.591559 1.737477 4.329038 0
 2.385063 1.740912 4.125975 0
 2.177982 1.741112 3.919094 0
 1.974583 1.738378 3.712961 0
 1.732201 3.399587 5.131800 0
 1.888216 1.889735 3.777951 0
 1.914438 2.061578 3.976017 0
 1.925266 2.270957 4.196224 0
 1.917839 2.484147 4.401986 0
 1.911728 2.690839 4.602569 0
 1.908412 2.894665 4.803080 0
 1.906691 3.097172 5.003870 0
 1.905827 3.298693 5.204532 0
 6.500159 1.905246 8.405407 0
 6.300050 1.905247 8.205300 0
 6.100012 1.905253 8.005273 0
 5.900002 1.905255 7.805269 0
 5.700000 1.905256 7.605270 0
 5.500000 1.905256 7.405274 0
 5.300000 1.905256 7.205273 0
 5.100000 1.905256 7.005276 0
 4.900000 1.905256 6.805272 0
 4.700000 1.905256 6.605275 0
 4.500000 1.905256 6.405274 0
 4.299998 1.905256 6.205267 0
 4.099990 1.905257 6.005257 0
 3.899955 1.905264 5.805230 0
 3.699840 1.905293 5.605142 0
 3.499527 1.905400 5.404937 0
 3.298807 1.905713 5.204528 0
 3.097392 1.906471 5.003868 0
 2.894997 1.908081 4.803080 0
 2.691190 1.911376 4.602565 0
 2.484311 1.917675 4.401985 0
 2.270653 1.925570 4.196221 0
 2.060597 1.915418 3.976014 0
 1.905448 3.499480 5.404942 0
 2.135760 2.135899 4.271658 0
 2.104960 2.377002 4.481961 0
 2.090590 2.585908 4.676498 0
 2.085064 2.789966 4.875031 0
 2.082110 2.993779 5.075892 0
 2.080192 3.196719 5.276919 0
 2.079153 3.398481 5.477645 0
 6.400184 2.078403 8.478591 0
 6.200055 2.078435 8.278497 0
 6.000012 2.078453 8.078472 0
 5.800001 2.078460 7.878475 0
 5.600000 2.078461 7.678477 0
 5.400000 2.078461 7.478476 0
 5.200000 2.078461 7.278478 0
 5.000000 2.078461 7.078478 0
 4.800000 2.078461 6.878478 0
 4.600000 2.078461 6.678476 0
 4.399998 2.078462 6.478472 0
 4.199987 2.078465 6.278463 0
 3.999942 2.078475 6.078430 0
 3.799801 2.078515 5.878324 0
 3.599434 2.078646 5.678090 0
 3.398609 2.079026 5.477644 0
 3.196977 2.079934 5.276917 0
 2.994213 2.081675 5.075890 0
 2.790560 2.084471 4.875031 0
 2.586526 2.089971 4.676496 0
 2.377388 2.104573 4.481959 0
 2.078700 3.599380 5.678094 0
 2.297137 2.296457 4.593591 0
 2.266043 2.487662 4.753700 0
 2.262109 2.683799 4.945908 0
 2.259681 2.888058 5.147741 0
 2.256066 3.093198 5.349271 0
 2.253646 3.296485 5.550141 0
 2.252471 3.498326 5.750808 0
 2.251976 3.699291 5.951282 0
 2.078535 3.799781 5.878334 0
 2.251779 3.899743 6.151538 0
 2.078482 3.999936 6.078437 0
 6.300180 2.251543 8.551728 0
 6.100049 2.251621 8.351673 0
 5.900009 2.251655 8.151673 0
 5.700000 2.251665 7.951681 0
 5.500000 2.251666 7.751681 0
 5.300000 2.251666 7.551683 0
 5.100000 2.251666 7.351685 0
 4.900000 2.251666 7.151687 0
 4.700000 2.251666 6.951684 0
 4.499998 2.251667 6.751679 0
 4.299985 2.251673 6.551671 0
 4.099934 2.251692 6.351640 0
 3.899770 2.251751 6.151531 0
 3.699354 2.251912 5.951276 0
 3.498463 2.252333 5.750804 0
 3.296756 2.253375 5.550138 0
 3.093670 2.255594 5.349267 0
 2.888762 2.258976 5.147740 0
 2.684678 2.261230 4.945908 0
 2.488550 2.265155 4.753703 0
 2.251704 4.099922 6.351645 0
 2.411478 2.410436 4.821911 0
 2.433464 2.572872 5.006334 0
 2.442241 2.777406 5.219646 0
 2.434824 2.988160 5.422987 0
 2.429480 3.193494 5.622982 0
 2.426994 3.396388 5.823393 0
 2.425862 3.598193 6.024068 0
 2.425308 3.799222 6.224545 0
 2.425049 3.999711 6.424778 0
 6.200158 2.424684 8.624845 0
 6.000041 2.424814 8.424870 0
 5.800009 2.424862 8.224879 0
 5.600003 2.424872 8.024888 0
 5.400002 2.424872 7.824888 0
 5.200001 2.424871 7.624886 0
 5.000000 2.424871 7.424888 0
 4.799999 2.424871 7.224886 0
 4.599996 2.424873 7.024886 0
 4.399982 2.424882 6.824878 0
 4.199931 2.424911 6.624857 0
 3.999761 2.424999 6.424771 0
 3.799312 2.425218 6.224542 0
 3.598354 2.425700 6.024065 0
 3.396673 2.426709 5.823390 0
 3.193966 2.429008 5.622978 0
 2.988868 2.434115 5.422986 0
 2.778346 2.441301 5.219648 0
 2.573951 2.432385 5.006333 0
 2.424937 4.199905 6.624863 0
 2.648262 2.647236 5.295497 0
 2.619244 2.884385 5.503632 0
 2.606478 3.091104 5.697588 0
 2.602436 3.293624 5.896068 0
 2.600625 3.496181 6.096820 0
 2.599405 3.698123 6.297544 0
 2.598689 3.899182 6.497890 0
 2.598339 4.099661 6.698020 0
 5.900070 2.598031 8.498110 0
 5.700036 2.598082 8.298132 0
 5.500020 2.598085 8.098117 0
 5.300009 2.598080 7.898101 0
 5.100002 2.598078 7.698095 0
 4.899997 2.598078 7.498091 0
 4.699988 2.598081 7.298085 0
 4.499968 2.598094 7.098076 0
 4.299912 2.598133 6.898060 0
 4.099755 2.598246 6.698015 0
 3.899334 2.598537 6.497880 0
 3.698352 2.599176 6.297538 0
 3.496516 2.600291 6.096817 0
 3.294110 2.601950 5.896065 0
 3.091786 2.605796 5.697586 0
 2.885270 2.618359 5.503632 0
 2.598183 4.299863 6.898065 0
 2.808132 2.807213 5.615349 0
 2.779400 2.995999 5.775403 0
 2.777545 3.190280 5.967830 0
 2.776947 3.392756 6.169715 0
 2.774630 3.596229 6.370873 0
 2.772931 3.798154 6.571101 0
 2.772066 3.999056 6.771140 0
 2.771655 4.199502 6.971176 0
 5.800220 2.771300 8.571533 0
 5.600135 2.771328 8.371474 0
 5.400070 2.771310 8.171393 0
 5.200027 2.771293 7.971333 0
 4.999999 2.771287 7.771301 0
 4.799970 2.771295 7.571278 0
 4.599919 2.771318 7.371252 0
 4.399827 2.771373 7.171216 0
 4.199659 2.771497 6.971170 0
 3.999314 2.771808 6.771136 0
 3.798517 2.772568 6.571096 0
 3.596696 2.774163 6.370869 0
 3.393331 2.776373 6.169713 0
 3.190976 2.776849 5.967827 0
 2.996826 2.778574 5.775405 0
 2.922392 2.921528 5.843927 0
 2.946249 3.082691 6.028948 0
 2.957400 3.285266 6.242673 0
 2.952061 3.493652 6.445726 0
 2.948034 3.696757 6.644806 0
 2.946264 3.897863 6.844144 0
 2.945481 4.098550 7.044049 0
 5.700603 2.944670 8.645288 0
 5.500349 2.944624 8.444985 0
 5.300164 2.944554 8.244733 0
 5.100044 2.944515 8.044572 0
 4.899949 2.944519 7.844482 0
 4.699821 2.944566 7.644402 0
 4.499619 2.944663 7.444295 0
 4.299323 2.944820 7.244153 0
 4.098934 2.945094 7.044040 0
 3.898422 2.945704 6.844137 0
 3.697459 2.947331 6.644800 0
 3.494440 2.951274 6.445723 0
 3.286091 2.956575 6.242674 0
 3.083534 2.945406 6.028944 0
 2.945043 4.299105 7.244168 0
 5.900901 2.944539 8.845451 0
 3.160048 3.159053 6.319108 0
 3.134210 3.392973 6.527192 0
 3.123370 3.596509 6.719892 0
 3.120593 3.796051 6.916660 0
 3.119744 3.996455 7.116218 0
 3.119122 4.197420 7.316565 0
 5.802030 3.118254 8.920300 0
 5.601278 3.118198 8.719491 0
 5.400676 3.117987 8.518676 0
 5.200269 3.117822 8.318103 0
 4.999989 3.117771 8.117774 0
 4.799702 3.117842 7.917558 0
 4.599276 3.118035 7.717326 0
 4.398651 3.118316 7.516983 0
 4.197893 3.118627 7.316534 0
 3.997207 3.118982 7.116198 0
 3.797036 3.119605 6.916651 0
 3.597621 3.122257 6.719886 0
 3.394090 3.133093 6.527193 0
 3.118584 4.398415 7.517023 0
 3.320134 3.318774 6.638915 0
 3.293481 3.503857 6.797349 0
 3.292979 3.693779 6.986772 0
 3.294220 3.892272 7.186508 0
 3.293897 4.093745 7.387662 0
 3.293229 4.295729 7.588979 0
 5.703693 3.292384 8.996090 0
 5.502136 3.291913 8.794061 0
 5.301006 3.291391 8.592411 0
 5.100268 3.291113 8.391397 0
 4.899672 3.291137 8.190823 0
 4.698908 3.291465 7.990388 0
 4.497745 3.292047 7.789809 0
 4.296191 3.292655 7.588862 0
 4.094584 3.292998 7.387594 0
 3.893475 3.292995 7.186481 0
 3.695218 3.291535 6.986766 0
 3.505338 3.292000 6.797350 0
 3.292369 4.497565 7.789956 0
 5.905461 3.292304 9.197769 0
 3.433333 3.431665 6.865011 0
 3.456739 3.587969 7.044723 0
 3.469515 3.783359 7.252891 0
 3.469277 3.986945 7.456242 0
 3.469207 4.190248 7.659477 0
 3.468053 4.393979 7.862056 0
 5.808833 3.467701 9.276544 0
 5.605465 3.467008 9.072487 0
 5.402808 3.465672 8.868486 0
 5.201106 3.464736 8.665854 0
 4.999941 3.464459 8.464414 0
 4.798752 3.464832 8.263597 0
 4.596994 3.465860 8.062871 0
 4.394298 3.467295 7.861609 0
 4.191016 3.468174 7.659204 0
 3.988198 3.467917 7.456130 0
 3.784965 3.467881 7.252861 0
 3.589710 3.454995 7.044716 0
 3.466382 4.596951 8.063358 0
 3.660070 3.658274 7.318357 0
 3.643328 3.878004 7.521349 0
 3.646447 4.080515 7.726979 0
 3.646656 4.287077 7.933755 0
 3.643370 4.493326 8.136717 0
 3.640344 4.697091 8.337461 0
 3.465122 4.798721 8.263866 0
 5.711941 3.644645 9.356599 0
 5.506257 3.641587 9.147854 0
 5.302824 3.639053 8.941889 0
 5.100743 3.637913 8.738667 0
 4.899042 3.637994 8.537054 0
 4.696891 3.639292 8.336202 0
 4.493366 3.641963 8.135344 0
 4.287665 3.645133 7.932815 0
 4.081683 3.644882 7.726583 0
 3.879602 3.641633 7.521253 0
 3.638500 4.898977 8.537500 0
 3.794060 3.792303 7.586378 0
 3.820471 3.964051 7.784540 0
 3.831830 4.173845 8.005692 0
 3.824738 4.387755 8.212514 0
 3.818118 4.594825 8.412966 0
 3.813838 4.798208 8.612074 0
 5.611322 3.820980 9.432312 0
 5.405224 3.814687 9.219919 0
 5.202112 3.811705 9.013831 0
 4.999848 3.810969 8.810831 0
 4.797530 3.811940 8.609486 0
 4.594291 3.815134 8.409442 0
 4.388085 3.821581 8.209682 0
 4.175085 3.829355 8.004462 0
 3.965717 3.818590 7.784324 0
 3.811523 4.999689 8.811236 0
 4.042418 4.039702 8.082143 0
 4.013954 4.282567 8.296544 0
 3.999677 4.493560 8.493258 0
 3.991608 4.698021 8.689651 0
 3.986436 4.900120 8.886577 0
 5.506200 3.991862 9.498066 0
 5.303460 3.985818 9.289289 0
 5.101062 3.983914 9.084988 0
 4.898533 3.984063 8.882609 0
 4.696011 3.986255 8.682277 0
 4.493102 3.992536 8.485653 0
 4.284352 4.008356 8.292727 0
 4.208342 4.202204 8.410567 0
 4.182033 4.398869 8.580923 0
 4.173604 4.599751 8.773378 0
 4.162862 4.802161 8.965043 0
 5.403332 4.158935 9.562274 0
 5.202557 4.156714 9.359283 0
 4.999789 4.156389 9.156189 0
 4.796943 4.157049 8.954006 0
 4.595987 4.159571 8.755577 0
 4.400958 4.167648 8.568624 0
 4.158014 5.002370 9.160400 0
 4.331014 4.318569 8.649605 0
 4.371658 4.498763 8.870440 0
 4.339408 4.709141 9.048566 0
 4.332259 4.905314 9.237586 0
 5.304957 4.328632 9.633598 0
 5.101945 4.329381 9.431337 0
 4.897652 4.329564 9.227228 0
 4.694493 4.329161 9.023667 0
 4.496460 4.328167 8.824639 0
 4.496521 4.641739 9.138275 0
 4.503991 4.810073 9.314076 0
 5.206214 4.504466 9.710690 0
 4.999890 4.503228 9.503129 0
 4.793485 4.504927 9.298428 0
 4.588579 4.498978 9.087575 0
 4.682240 4.694730 9.376984 0
 5.100462 4.676728 9.777203 0
 4.899690 4.677087 9.576790 0
 1 2 3 
 3 4 5 
 5 6 7 
 7 8 9 
 9 10 11 
 11 12 13 
 13 14 15 
 15 16 17 
 17 18 19 
 19 20 21 
 21 22 23 
 23 24 25 
 25 26 27 
 27 28 29 
 30 31 32 
 33 30 34 
 35 33 36 
 37 35 38 
 39 37 40 
 41 39 42 
 43 41 44 
 45 43 46 
 47 45 48 
 49 47 50 
 51 49 52 
 53 51 54 
 55 53 56 
 57 55 58 
 59 57 60 
 61 59 62 
 63 61 64 
 65 63 66 
 67 65 68 
 69 67 70 
 71 69 72 
 73 71 74 
 75 73 76 
 77 75 78 
 79 77 80 
 81 79 82 
 83 81 84 
 85 83 86 
 87 85 88 
 89 87 90 
 91 89 92 
 1 91 2 
 3 2 93 
 5 4 6 
 3 93 4 
 7 6 8 
 9 8 10 
 11 10 12 
 13 12 14 
 15 14 16 
 17 16 18 
 19 18 20 
 21 20 22 
 23 22 24 
 25 24 26 
 27 26 28 
 29 28 94 
 31 95 32 
 30 32 34 
 33 34 36 
 35 36 38 
 37 38 40 
 39 40 42 
 41 42 44 
 43 44 46 
 45 46 48 
 47 48 50 
 49 50 52 
 51 52 54 
 53 54 56 
 55 56 58 
 57 58 60 
 59 60 62 
 61 62 64 
 63 64 66 
 65 66 68 
 67 68 70 
 69 70 72 
 71 72 74 
 73 74 76 
 75 76 78 
 77 78 80 
 79 80 82 
 81 82 84 
 83 84 86 
 85 86 88 
 87 88 90 
 89 90 92 
 91 92 93 
 2 91 93 
 96 6 4 
 93 92 4 
 97 8 6 
 98 10 8 
 99 12 10 
 100 14 12 
 101 16 14 
 102 18 16 
 103 20 18 
 104 22 20 
 105 24 22 
 106 26 24 
 107 28 26 
 108 94 28 
 32 95 109 
 34 32 110 
 36 34 111 
 38 36 112 
 40 38 113 
 42 40 114 
 44 42 115 
 46 44 116 
 117 48 46 
 118 50 48 
 119 52 50 
 120 54 52 
 121 56 54 
 58 56 122 
 60 58 123 
 62 60 124 
 64 62 125 
 66 64 126 
 68 66 127 
 70 68 128 
 72 70 129 
 74 72 130 
 76 74 131 
 78 76 132 
 80 78 133 
 82 80 134 
 84 82 135 
 86 84 136 
 88 86 137 
 88 138 90 
 90 96 92 
 92 96 4 
 96 97 6 
 97 98 8 
 98 99 10 
 99 100 12 
 100 101 14 
 101 102 16 
 102 103 18 
 103 104 20 
 104 105 22 
 105 106 24 
 106 107 26 
 107 108 28 
 108 139 94 
 95 140 109 
 32 109 110 
 34 110 111 
 36 111 112 
 38 112 113 
 40 113 114 
 42 114 115 
 44 115 116 
 46 116 117 
 118 48 117 
 119 50 118 
 120 52 119 
 121 54 120 
 122 56 121 
 58 122 123 
 60 123 124 
 62 124 125 
 64 125 126 
 66 126 127 
 68 127 128 
 70 128 129 
 72 129 130 
 74 130 131 
 76 131 132 
 78 132 133 
 80 133 134 
 82 134 135 
 84 135 136 
 86 136 137 
 88 137 138 
 138 96 90 
 141 97 96 
 142 98 97 
 143 99 98 
 144 100 99 
 145 101 100 
 146 102 101 
 147 103 102 
 148 104 103 
 149 105 104 
 150 106 105 
 151 107 106 
 152 108 107 
 153 139 108 
 109 140 154 
 110 109 155 
 111 110 156 
 112 111 157 
 113 112 158 
 114 113 159 
 115 114 160 
 116 115 161 
 116 162 117 
 117 163 118 
 118 164 119 
 119 165 120 
 120 166 121 
 167 122 121 
 168 123 122 
 169 124 123 
 125 124 170 
 171 126 125 
 127 126 172 
 128 127 173 
 129 128 174 
 129 175 130 
 131 130 176 
 132 131 177 
 133 132 178 
 134 133 179 
 135 134 180 
 136 135 181 
 136 182 137 
 138 137 183 
 138 141 96 
 141 142 97 
 142 143 98 
 143 144 99 
 144 145 100 
 145 146 101 
 146 147 102 
 147 148 103 
 148 149 104 
 149 150 105 
 150 151 106 
 151 152 107 
 152 153 108 
 139 153 184 
 140 185 154 
 109 154 155 
 110 155 156 
 111 156 157 
 112 157 158 
 113 158 159 
 114 159 160 
 115 160 161 
 116 161 162 
 162 163 117 
 163 164 118 
 164 165 119 
 165 166 120 
 166 167 121 
 168 122 167 
 169 123 168 
 170 124 169 
 125 170 171 
 172 126 171 
 127 172 173 
 128 173 174 
 129 174 175 
 175 176 130 
 131 176 177 
 132 177 178 
 133 178 179 
 134 179 180 
 135 180 181 
 136 181 182 
 182 183 137 
 138 183 141 
 141 183 142 
 186 143 142 
 187 144 143 
 188 145 144 
 189 146 145 
 147 146 190 
 191 148 147 
 192 149 148 
 193 150 149 
 194 151 150 
 151 195 152 
 152 196 153 
 153 197 184 
 154 185 198 
 155 154 199 
 156 155 200 
 157 156 201 
 157 202 158 
 159 158 203 
 160 159 204 
 161 160 205 
 162 161 206 
 163 162 207 
 164 163 208 
 165 164 209 
 166 165 210 
 167 166 211 
 167 212 168 
 168 213 169 
 169 214 170 
 170 215 171 
 216 172 171 
 217 173 172 
 218 174 173 
 174 219 175 
 176 175 220 
 177 176 221 
 178 177 222 
 223 179 178 
 180 179 224 
 181 180 225 
 181 226 182 
 183 182 186 
 183 186 142 
 186 187 143 
 187 188 144 
 188 189 145 
 190 146 189 
 190 191 147 
 191 192 148 
 192 193 149 
 193 194 150 
 151 194 195 
 152 195 196 
 153 196 197 
 185 227 198 
 154 198 199 
 155 199 200 
 156 200 201 
 157 201 202 
 202 203 158 
 159 203 204 
 205 160 204 
 161 205 206 
 162 206 207 
 163 207 208 
 164 208 209 
 165 209 210 
 166 210 211 
 167 211 212 
 212 213 168 
 213 214 169 
 214 215 170 
 215 216 171 
 217 172 216 
 218 173 217 
 219 174 218 
 219 220 175 
 176 220 221 
 177 221 222 
 178 222 223 
 224 179 223 
 180 224 225 
 181 225 226 
 226 186 182 
 228 187 186 
 229 188 187 
 230 189 188 
 231 190 189 
 232 191 190 
 191 233 192 
 192 234 193 
 193 235 194 
 195 194 236 
 196 195 237 
 197 196 238 
 227 239 198 
 199 198 240 
 199 241 200 
 201 200 242 
 202 201 243 
 203 202 244 
 204 203 245 
 204 246 205 
 205 247 206 
 206 248 207 
 207 249 208 
 208 250 209 
 209 251 210 
 252 211 210 
 212 211 253 
 212 254 213 
 214 213 255 
 215 214 256 
 216 215 257 
 216 258 217 
 217 259 218 
 218 260 219 
 261 220 219 
 262 221 220 
 263 222 221 
 223 222 264 
 224 223 265 
 225 224 266 
 226 225 267 
 226 228 186 
 228 229 187 
 229 230 188 
 230 231 189 
 231 232 190 
 191 232 233 
 192 233 234 
 193 234 235 
 236 194 235 
 237 195 236 
 238 196 237 
 238 268 197 
 239 240 198 
 199 240 241 
 241 242 200 
 201 242 243 
 202 243 244 
 203 244 245 
 204 245 246 
 205 246 247 
 247 248 206 
 248 249 207 
 249 250 208 
 250 251 209 
 251 252 210 
 253 211 252 
 212 253 254 
 254 255 213 
 214 255 256 
 215 256 257 
 216 257 258 
 258 259 217 
 259 260 218 
 260 261 219 
 262 220 261 
 263 221 262 
 264 222 263 
 223 264 265 
 224 265 266 
 225 266 267 
 226 267 228 
 228 269 229 
 270 230 229 
 230 271 231 
 231 272 232 
 232 273 233 
 234 233 274 
 235 234 275 
 276 236 235 
 277 237 236 
 238 237 278 
 279 268 238 
 240 239 280 
 241 240 281 
 241 282 242 
 242 283 243 
 244 243 284 
 244 285 245 
 246 245 286 
 247 246 287 
 247 288 248 
 249 248 289 
 249 290 250 
 250 291 251 
 251 292 252 
 252 293 253 
 253 294 254 
 254 295 255 
 255 296 256 
 297 257 256 
 258 257 298 
 299 259 258 
 260 259 300 
 261 260 301 
 261 302 262 
 303 263 262 
 304 264 263 
 305 265 264 
 266 265 306 
 267 266 307 
 228 267 269 
 269 270 229 
 230 270 271 
 231 271 272 
 232 272 273 
 274 233 273 
 275 234 274 
 275 276 235 
 276 277 236 
 278 237 277 
 278 279 238 
 268 279 308 
 239 309 280 
 240 280 281 
 241 281 282 
 282 283 242 
 283 284 243 
 244 284 285 
 286 245 285 
 287 246 286 
 247 287 288 
 288 289 248 
 249 289 290 