TITLE      =  "2D FE Unstructured grid data" 
VARIABLES = "X", "Y", "U", "Dom" 
ZONE T="P1", F=FEPOINT, N= 799 E= 1484  ET=TRIANGLE 
 10.000000 7.000000 17.000000 2
 9.826795 6.900000 16.726805 2
 10.000000 6.800000 16.799999 2
 9.826795 6.700000 16.526800 2
 10.000000 6.600000 16.600000 2
 9.826795 6.500000 16.326797 2
 10.000000 6.400000 16.400000 2
 9.826795 6.300000 16.126797 2
 10.000000 6.200000 16.200001 2
 9.826795 6.100000 15.926807 2
 10.000000 6.000000 16.000000 2
 9.826795 5.900000 15.726802 2
 10.000000 5.800000 15.800000 2
 9.826795 5.700000 15.526806 2
 10.000000 5.600000 15.600000 2
 9.826795 5.500000 15.326809 2
 10.000000 5.400000 15.400000 2
 9.826795 5.300000 15.126811 2
 10.000000 5.200000 15.200000 2
 9.826795 5.100000 14.926805 2
 10.000000 5.000000 15.000000 2
 9.826795 4.900000 14.726808 2
 10.000000 4.800000 14.800000 2
 9.826795 4.700000 14.526808 2
 10.000000 4.600000 14.600000 2
 9.826795 4.500000 14.326805 2
 10.000000 4.400000 14.400000 2
 9.826795 4.300000 14.126809 2
 10.000000 4.200000 14.200000 2
 9.826795 4.100000 13.926803 2
 10.000000 4.000000 14.000000 2
 9.826795 3.900000 13.726797 2
 10.000000 3.800000 13.800000 2
 9.826795 3.700000 13.526797 2
 10.000000 3.600000 13.600000 2
 9.826795 3.500000 13.326799 2
 10.000000 3.400000 13.400000 2
 9.826795 3.300000 13.126803 2
 10.000000 3.200000 13.200000 2
 9.826795 3.100000 12.926801 2
 10.000000 3.000000 13.000000 2
 9.826795 2.900000 12.726798 2
 10.000000 2.800000 12.800000 2
 9.826795 2.700000 12.526797 2
 10.000000 2.600000 12.600000 2
 9.826796 2.500000 12.326804 2
 10.000000 2.400000 12.400000 2
 9.826795 2.300001 12.126798 2
 10.000000 2.200000 12.200000 2
 9.826790 2.100004 11.926793 2
 10.000000 2.000000 12.000000 2
 9.826769 1.899997 11.726768 2
 10.000000 1.800000 11.800000 2
 9.826718 1.699942 11.526668 2
 10.000000 1.600000 11.600000 2
 9.826645 1.499748 11.326399 2
 10.000000 1.400000 11.400000 2
 9.826605 1.299307 11.125911 2
 10.000000 1.200000 11.200000 2
 9.826694 1.098594 10.925287 2
 10.000000 1.000000 11.000000 2
 9.826888 0.897739 10.724632 2
 10.000000 0.800000 10.800000 2
 9.826661 0.696703 10.523362 2
 10.000000 0.600000 10.600000 2
 9.824934 0.493506 10.318439 2
 10.000000 0.400000 10.400000 2
 9.835630 0.297254 10.132885 2
 10.000000 0.200000 10.200000 2
 9.912641 0.087587 10.000221 2
 10.000000 0.000000 10.000000 2
 9.800000 0.000000 9.800000 2
 9.600000 0.000000 9.600000 2
 9.704722 0.166774 9.871496 2
 9.400000 0.000000 9.400000 2
 9.508581 0.180216 9.688799 2
 9.200000 0.000000 9.200000 2
 9.303722 0.180030 9.483754 2
 9.000000 0.000000 9.000000 2
 9.101120 0.177994 9.279114 2
 8.800000 0.000000 8.800000 2
 8.900103 0.175431 9.075538 2
 8.600000 0.000000 8.600000 2
 8.699998 0.174015 8.874015 2
 8.400000 0.000000 8.400000 2
 8.500047 0.173424 8.673471 2
 8.200000 0.000000 8.200000 2
 8.300056 0.173237 8.473294 2
 8.000000 0.000000 8.000000 2
 8.100037 0.173200 8.273235 2
 7.800000 0.000000 7.800000 2
 7.900016 0.173201 8.073212 2
 7.600000 0.000000 7.600000 2
 7.700005 0.173204 7.873207 2
 7.400000 0.000000 7.400000 2
 7.500001 0.173205 7.673203 2
 7.200000 0.000000 7.200000 2
 7.300000 0.173205 7.473204 2
 7.000000 0.000000 7.000000 2
 7.100000 0.173205 7.273203 2
 6.800000 0.000000 6.800000 2
 6.900000 0.173205 7.073206 2
 6.600000 0.000000 6.600000 2
 6.700000 0.173205 6.873205 2
 6.400000 0.000000 6.400000 2
 6.500000 0.173205 6.673207 2
 9.826795 7.100000 16.926800 2
 9.850587 0.150333 10.000919 2
 9.653590 7.000000 16.653606 2
 9.653590 6.800000 16.453602 2
 9.653590 6.600000 16.253599 2
 9.653590 6.400000 16.053606 2
 9.653590 6.200000 15.853604 2
 9.653590 6.000000 15.653610 2
 9.653590 5.800000 15.453603 2
 9.653590 5.600000 15.253603 2
 9.653590 5.400000 15.053608 2
 9.653590 5.200000 14.853605 2
 9.653590 5.000000 14.653612 2
 9.653590 4.800000 14.453609 2
 9.653590 4.600000 14.253610 2
 9.653590 4.400000 14.053612 2
 9.653590 4.200000 13.853607 2
 9.653590 4.000000 13.653599 2
 9.653590 3.800000 13.453604 2
 9.653590 3.600000 13.253601 2
 9.653590 3.400000 13.053602 2
 9.653590 3.200000 12.853600 2
 9.653590 3.000000 12.653599 2
 9.653590 2.800000 12.453597 2
 9.653590 2.600000 12.253592 2
 9.653592 2.400002 12.053597 2
 9.653589 2.200010 11.853601 2
 9.653562 2.000027 11.653595 2
 9.653461 1.800009 11.453479 2
 9.653239 1.599814 11.253061 2
 9.652949 1.399181 11.052140 2
 9.652830 1.197874 10.850708 2
 9.653275 0.996054 10.649333 2
 9.654196 0.794502 10.448704 2
 9.653635 0.594034 10.247665 2
 9.633580 0.372823 10.006408 2
 9.409357 0.361810 9.771169 2
 9.202974 0.360545 9.563520 2
 8.999496 0.352481 9.351979 2
 8.799597 0.348583 9.148186 2
 8.599996 0.346968 8.946966 2
 8.400155 0.346451 8.746604 2
 8.200141 0.346361 8.546502 2
 8.000079 0.346379 8.346457 2
 7.800033 0.346402 8.146432 2
 7.600011 0.346410 7.946420 2
 7.400003 0.346411 7.746410 2
 7.200001 0.346411 7.546407 2
 7.000000 0.346410 7.346406 2
 6.800000 0.346410 7.146410 2
 6.600000 0.346410 6.946411 2
 9.653589 7.200001 16.853596 2
 9.480384 7.100001 16.580387 2
 9.480385 6.900000 16.380398 2
 9.480385 6.700000 16.180412 2
 9.480385 6.500000 15.980399 2
 9.480385 6.300000 15.780408 2
 9.480385 6.100000 15.580409 2
 9.480385 5.900000 15.380406 2
 9.480385 5.700000 15.180406 2
 9.480385 5.500000 14.980408 2
 9.480385 5.300000 14.780414 2
 9.480385 5.100000 14.580407 2
 9.480385 4.900000 14.380412 2
 9.480385 4.700000 14.180410 2
 9.480385 4.500000 13.980410 2
 9.480385 4.300000 13.780409 2
 9.480385 4.100000 13.580409 2
 9.480385 3.900000 13.380405 2
 9.480385 3.700000 13.180399 2
 9.480385 3.500000 12.980402 2
 9.480385 3.300000 12.780400 2
 9.480385 3.100000 12.580400 2
 9.480385 2.900000 12.380398 2
 9.480386 2.699999 12.180397 2
 9.480391 2.499998 11.980396 2
 9.480398 2.300007 11.780413 2
 9.480389 2.100050 11.580447 2
 9.480285 1.900133 11.380424 2
 9.479924 1.700137 11.180069 2
 9.479170 1.499668 10.978840 2
 9.478285 1.298133 10.776419 2
 9.477967 1.095104 10.573076 2
 9.479834 0.891516 10.371354 2
 9.483906 0.690157 10.174068 2
 9.497973 0.516076 10.014050 2
 9.308722 0.561459 9.870177 2
 9.094481 0.530112 9.624599 2
 8.897707 0.522956 9.420670 2
 8.699534 0.520181 9.219722 2
 8.500291 0.519385 9.019677 2
 8.300405 0.519342 8.819741 2
 8.100284 0.519471 8.619750 2
 7.900150 0.519573 8.419716 2
 7.700065 0.519616 8.219674 2
 7.500023 0.519623 8.019642 2
 7.300007 0.519620 7.819619 2
 7.100001 0.519617 7.619615 2
 6.900000 0.519615 7.419614 2
 6.700000 0.519615 7.219616 2
 9.307177 7.000003 16.307194 2
 9.307179 6.800000 16.107199 2
 9.307179 6.600000 15.907197 2
 9.307179 6.400000 15.707195 2
 9.307179 6.200000 15.507201 2
 9.307179 6.000000 15.307205 2
 9.307179 5.800000 15.107205 2
 9.307179 5.600000 14.907209 2
 9.307179 5.400000 14.707204 2
 9.307179 5.200000 14.507214 2
 9.307179 5.000000 14.307214 2
 9.307179 4.800000 14.107208 2
 9.307179 4.600000 13.907203 2
 9.307179 4.400000 13.707205 2
 9.307179 4.200000 13.507203 2
 9.307179 4.000000 13.307203 2
 9.307179 3.800000 13.107205 2
 9.307179 3.600000 12.907200 2
 9.307179 3.400000 12.707199 2
 9.307179 3.200000 12.507196 2
 9.307179 2.999999 12.307193 2
 9.307180 2.799995 12.107189 2
 9.307187 2.599985 11.907184 2
 9.307206 2.399977 11.707193 2
 9.307241 2.200013 11.507260 2
 9.307230 2.000178 11.307412 2
 9.306939 1.800509 11.107457 2
 9.305885 1.600714 10.906606 2
 9.303614 1.399746 10.703367 2
 9.301503 1.196497 10.498007 2
 9.300078 0.989496 10.289583 2
 9.307668 0.782809 10.090482 2
 9.162893 0.688829 9.851729 2
 8.993343 0.694862 9.688210 2
 8.798278 0.691929 9.490208 2
 8.600464 0.691424 9.291894 2
 8.400994 0.691834 9.092829 2
 8.200827 0.692332 8.893156 2
 8.000520 0.692669 8.693173 2
 7.800275 0.692829 8.493093 2
 7.600124 0.692866 8.292982 2
 7.400046 0.692852 8.092893 2
 7.200013 0.692833 7.892841 2
 7.000003 0.692824 7.692822 2
 6.800000 0.692821 7.492821 2
 9.307167 7.200013 16.507191 2
 9.133947 7.100021 16.233980 2
 9.133968 6.900004 16.033997 2
 9.133974 6.700001 15.833990 2
 9.133975 6.500000 15.633998 2
 9.133975 6.300000 15.433997 2
 9.133975 6.100000 15.234005 2
 9.133975 5.900000 15.034005 2
 9.133975 5.700000 14.834007 2
 9.133975 5.500000 14.634001 2
 9.133975 5.300000 14.434008 2
 9.133975 5.100000 14.234007 2
 9.133975 4.900000 14.034010 2
 9.133975 4.700000 13.834007 2
 9.133975 4.500000 13.634005 2
 9.133975 4.300000 13.434003 2
 9.133975 4.100000 13.234008 2
 9.133975 3.900000 13.034003 2
 9.133975 3.700000 12.834002 2
 9.133975 3.500000 12.633992 2
 9.133975 3.300000 12.433992 2
 9.133974 3.099998 12.233993 2
 9.133974 2.899988 12.033978 2
 9.133978 2.699961 11.833954 2
 9.134001 2.499909 11.633918 2
 9.134073 2.299867 11.433949 2
 9.134215 2.099976 11.234203 2
 9.134283 1.900495 11.034796 2
 9.133684 1.701602 10.835293 2
 9.131061 1.502725 10.633801 2
 9.124093 1.300443 10.424541 2
 9.122599 1.095314 10.217921 2
 9.108246 0.874847 9.983093 2
 8.896146 0.860498 9.756649 2
 8.700866 0.861507 9.562380 2
 8.502232 0.863358 9.365589 2
 8.302035 0.864744 9.166776 2
 8.101452 0.865608 8.967046 2
 7.900900 0.866078 8.766968 2
 7.700478 0.866220 8.566689 2
 7.500211 0.866181 8.366384 2
 7.300076 0.866104 8.166174 2
 7.100021 0.866053 7.966070 2
 6.900004 0.866032 7.766034 2
 6.700001 0.866026 7.566028 2
 8.960724 7.000029 15.960770 2
 8.960760 6.800006 15.760783 2
 8.960768 6.600001 15.560790 2
 8.960770 6.400000 15.360795 2
 8.960770 6.200000 15.160802 2
 8.960770 6.000000 14.960807 2
 8.960770 5.800000 14.760804 2
 8.960770 5.600000 14.560803 2
 8.960770 5.400000 14.360804 2
 8.960770 5.200000 14.160804 2
 8.960770 5.000000 13.960805 2
 8.960770 4.800000 13.760807 2
 8.960770 4.600000 13.560802 2
 8.960770 4.400000 13.360804 2
 8.960770 4.200000 13.160797 2
 8.960770 4.000000 12.960798 2
 8.960770 3.800000 12.760792 2
 8.960770 3.600000 12.560786 2
 8.960770 3.400000 12.360793 2
 8.960769 3.199996 12.160788 2
 8.960766 2.999979 11.960765 2
 8.960763 2.799926 11.760704 2
 8.960771 2.599804 11.560593 2
 8.960836 2.399608 11.360457 2
 8.961060 2.199445 11.160516 2
 8.961563 1.999703 10.961283 2
 8.962123 1.801100 10.763235 2
 8.961451 1.604329 10.565784 2
 8.956517 1.409660 10.366182 2
 8.927285 1.198459 10.125749 2
 8.971709 1.011493 9.983209 2
 8.802156 1.027864 9.830029 2
 8.604830 1.033423 9.638258 2
 8.404392 1.036631 9.441023 2
 8.203375 1.038248 9.241621 2
 8.002403 1.039413 9.041807 2
 7.801457 1.039881 8.841326 2
 7.600734 1.039816 8.640539 2
 7.400304 1.039573 8.439866 2
 7.200104 1.039376 8.239475 2
 7.000029 1.039276 8.039301 2
 6.800006 1.039240 7.839245 2
 8.787506 6.900036 15.687562 2
 8.787553 6.700009 15.487584 2
 8.787562 6.500002 15.287590 2
 8.787564 6.300000 15.087592 2
 8.787564 6.100000 14.887605 2
 8.787564 5.900000 14.687599 2
 8.787564 5.700000 14.487605 2
 8.787564 5.500000 14.287602 2
 8.787564 5.300000 14.087613 2
 8.787564 5.100000 13.887611 2
 8.787564 4.900000 13.687603 2
 8.787564 4.700000 13.487606 2
 8.787564 4.500000 13.287597 2
 8.787564 4.300000 13.087592 2
 8.787564 4.100000 12.887594 2
 8.787564 3.900000 12.687590 2
 8.787564 3.700000 12.487584 2
 8.787563 3.499999 12.287586 2
 8.787560 3.299994 12.087574 2
 8.787551 3.099968 11.887536 2
 8.787533 2.899883 11.687430 2
 8.787511 2.699674 11.487199 2
 8.787519 2.499275 11.286813 2
 8.787670 2.298691 11.086373 2
 8.788253 2.098170 10.886439 2
 8.789836 1.898629 10.688478 2
 8.792221 1.701819 10.494055 2
 8.792980 1.509298 10.302287 2
 8.801353 1.342790 10.144152 2
 8.710614 1.201247 9.911869 2
 8.508730 1.209343 9.718076 2
 8.306453 1.210192 9.516645 2
 8.105444 1.212754 9.318186 2
 7.903730 1.214213 9.117939 2
 7.702051 1.214218 8.916262 2
 7.500936 1.213598 8.714523 2
 7.300362 1.212997 8.513355 2
 7.100121 1.212644 8.312760 2
 6.900037 1.212494 8.112531 2
 8.787356 7.100121 15.887497 2
 6.700010 1.212448 7.912462 2
 8.614130 7.000137 15.614285 2
 8.614302 6.800049 15.414376 2
 8.614348 6.600015 15.214392 2
 8.614358 6.400003 15.014388 2
 8.614359 6.200000 14.814397 2
 8.614359 6.000000 14.614404 2
 8.614359 5.800000 14.414402 2
 8.614359 5.600000 14.214398 2
 8.614359 5.400000 14.014404 2
 8.614359 5.200000 13.814405 2
 8.614359 5.000000 13.614404 2
 8.614359 4.800000 13.414396 2
 8.614359 4.600000 13.214401 2
 8.614359 4.400000 13.014400 2
 8.614359 4.200000 12.814392 2
 8.614359 4.000000 12.614392 2
 8.614359 3.800000 12.414392 2
 8.614358 3.600000 12.214383 2
 8.614349 3.399994 12.014370 2
 8.614326 3.199962 11.814303 2
 8.614273 2.999846 11.614141 2
 8.614191 2.799542 11.413747 2
 8.614109 2.598920 11.213045 2
 8.614108 2.397896 11.012020 2
 8.614361 2.196484 10.810852 2
 8.615487 1.994905 10.610404 2
 8.620175 1.795360 10.415546 2
 8.627611 1.601984 10.229606 2
 8.619170 1.395246 10.014425 2
 8.408265 1.378965 9.787238 2
 8.210850 1.385088 9.595937 2
 8.008467 1.389786 9.398252 2
 7.804851 1.390228 9.195075 2
 7.602309 1.388886 8.991186 2
 7.400953 1.387343 8.788290 2
 7.200369 1.386347 8.586709 2
 7.000139 1.385873 8.386009 2
 6.800050 1.385701 8.185756 2
 6.600016 1.385652 7.985670 2
 8.440960 6.900178 15.341160 2
 8.441110 6.700073 15.141208 2
 8.441147 6.500024 14.941201 2
 8.441154 6.300005 14.741188 2
 8.441154 6.100001 14.541188 2
 8.441154 5.900000 14.341198 2
 8.441154 5.700000 14.141195 2
 8.441154 5.500000 13.941210 2
 8.441154 5.300000 13.741206 2
 8.441154 5.100000 13.541205 2
 8.441154 4.900000 13.341201 2
 8.441154 4.700000 13.141194 2
 8.441154 4.500000 12.941196 2
 8.441154 4.300000 12.741193 2
 8.441154 4.100000 12.541194 2
 8.441154 3.900000 12.341188 2
 8.441152 3.700001 12.141184 2
 8.441137 3.499998 11.941160 2
 8.441090 3.299971 11.741083 2
 8.440974 3.099846 11.540835 2
 8.440769 2.899465 11.340252 2
 8.440510 2.698614 11.139143 2
 8.440325 2.497134 10.937473 2
 8.440343 2.295050 10.735404 2
 8.440477 2.092296 10.532783 2
 8.440657 1.886963 10.327625 2
 8.456622 1.686969 10.143599 2
 8.486101 1.522864 10.008969 2
 8.320724 1.550891 9.871618 2
 8.118619 1.568232 9.686852 2
 7.910056 1.569237 9.479291 2
 7.704708 1.566725 9.271428 2
 7.501908 1.563083 9.064984 2
 7.300817 1.560709 8.861518 2
 7.100385 1.559523 8.659906 2
 6.900183 1.559046 8.459227 2
 6.700077 1.558892 8.258974 2
 8.440486 7.100379 15.540885 2
 8.267476 7.000492 15.267994 2
 8.267821 6.800259 15.068113 2
 8.267919 6.600107 14.868059 2
 8.267941 6.400033 14.668009 2
 8.267947 6.200007 14.467998 2
 8.267949 6.000001 14.267995 2
 8.267949 5.800000 14.068000 2
 8.267949 5.600000 13.867996 2
 8.267949 5.400000 13.668003 2
 8.267949 5.200000 13.468004 2
 8.267949 5.000000 13.268001 2
 8.267949 4.800000 13.067999 2
 8.267949 4.600000 12.867999 2
 8.267949 4.400000 12.667993 2
 8.267949 4.200000 12.467989 2
 8.267949 4.000000 12.267986 2
 8.267944 3.800003 12.067980 2
 8.267925 3.600008 11.867956 2
 8.267854 3.400002 11.667877 2
 8.267656 3.199914 11.467588 2
 8.267243 2.999542 11.266795 2
 8.266620 2.798540 11.065175 2
 8.266002 2.596555 10.862568 2
 8.265861 2.393630 10.659502 2
 8.266347 2.190456 10.456808 2
 8.265920 1.987779 10.253703 2
 8.246576 1.763064 10.009644 2
 8.017666 1.751873 9.769539 2
 7.808210 1.750072 9.558274 2
 7.602533 1.740929 9.343459 2
 7.401227 1.735968 9.137192 2
 7.200796 1.733546 8.934340 2
 7.000508 1.732529 8.733038 2
 6.800273 1.732174 8.532451 2
 8.266472 7.200780 15.467279 2
 6.600117 1.732074 8.332195 2
 8.093918 7.101106 15.195044 2
 8.094476 6.900727 14.995232 2
 8.094647 6.700355 14.795031 2
 8.094705 6.500129 14.594874 2
 8.094728 6.300033 14.394798 2
 8.094739 6.100005 14.194795 2
 8.094743 5.900000 13.994790 2
 8.094744 5.700000 13.794793 2
 8.094744 5.500000 13.594801 2
 8.094744 5.300000 13.394796 2
 8.094744 5.100000 13.194798 2
 8.094744 4.900000 12.994794 2
 8.094744 4.700000 12.794797 2
 8.094744 4.500000 12.594794 2
 8.094744 4.300000 12.394784 2
 8.094743 4.100001 12.194783 2
 8.094737 3.900007 11.994779 2
 8.094712 3.700023 11.794766 2
 8.094624 3.500053 11.594706 2
 8.094363 3.300058 11.394443 2
 8.093734 3.099853 11.193604 2
 8.092539 2.898961 10.991508 2
 8.090991 2.696705 10.787704 2
 8.089789 2.492572 10.582369 2
 8.090695 2.287455 10.378161 2
 8.094004 2.084160 10.178165 2
 8.107946 1.908099 10.016047 2
 7.916114 1.953064 9.869184 2
 7.699193 1.920100 9.619293 2
 7.500632 1.911615 9.412239 2
 7.301202 1.907701 9.208901 2
 7.101138 1.906056 9.007192 2
 6.900765 1.905461 8.806229 2
 6.700394 1.905282 8.605681 2
 6.500159 1.905246 8.405407 2
 7.921124 7.001723 14.922874 2
 7.921262 6.800952 14.722242 2
 7.921363 6.600379 14.521778 2
 7.921448 6.400101 14.321588 2
 7.921503 6.200012 14.121557 2
 7.921527 5.999997 13.921564 2
 7.921536 5.799999 13.721581 2
 7.921538 5.600000 13.521585 2
 7.921539 5.400000 13.321589 2
 7.921539 5.200000 13.121591 2
 7.921539 5.000000 12.921593 2
 7.921539 4.800000 12.721589 2
 7.921539 4.600000 12.521591 2
 7.921538 4.400001 12.321581 2
 7.921536 4.200004 12.121581 2
 7.921528 4.000015 11.921577 2
 7.921495 3.800050 11.721575 2
 7.921392 3.600125 11.521552 2
 7.921106 3.400250 11.321376 2
 7.920386 3.200344 11.120742 2
 7.918751 3.000018 10.918782 2
 7.915699 2.798171 10.713873 2
 7.912557 2.593689 10.506250 2
 7.909859 2.385089 10.294948 2
 7.916215 2.176583 10.092802 2
 7.769251 2.080619 9.849874 2
 7.598040 2.085400 9.683436 2
 7.401307 2.080982 9.482283 2
 7.202183 2.079188 9.281363 2
 7.001782 2.078593 9.080379 2
 6.801054 2.078408 8.879467 2
 6.600491 2.078376 8.678872 2
 6.400184 2.078403 8.478591 2
 7.747691 6.700889 14.448611 2
 7.747958 6.500210 14.248198 2
 7.748168 6.299989 14.048197 2
 7.748273 6.099967 13.848277 2
 7.748313 5.899987 13.648346 2
 7.748327 5.699998 13.448367 2
 7.748332 5.500000 13.248379 2
 7.748333 5.300000 13.048382 2
 7.748334 5.100000 12.848379 2
 7.748334 4.900000 12.648385 2
 7.748333 4.700000 12.448379 2
 7.748332 4.500000 12.248378 2
 7.748328 4.300004 12.048372 2
 7.748316 4.100025 11.848375 2
 7.748277 3.900088 11.648395 2
 7.748154 3.700228 11.448409 2
 7.747837 3.500477 11.248334 2
 7.747137 3.300857 11.048008 2
 7.745611 3.101319 10.846945 2
 7.742054 2.901270 10.643331 2
 7.734031 2.697400 10.431437 2
 7.731332 2.490512 10.221846 2
 7.715331 2.267915 9.983245 2
 7.500977 2.251624 9.752595 2
 7.303854 2.250980 9.554831 2
 7.103647 2.251275 9.354918 2
 6.902344 2.251352 9.153701 2
 6.701195 2.251339 8.952538 2
 6.500512 2.251427 8.751944 2
 6.300180 2.251543 8.551728 2
 7.573880 6.600250 14.174167 2
 7.574561 6.399793 13.974393 2
 7.574910 6.199821 13.774760 2
 7.575043 5.999928 13.575010 2
 7.575090 5.799988 13.375117 2
 7.575112 5.600004 13.175159 2
 7.575123 5.400003 12.975163 2
 7.575128 5.200001 12.775175 2
 7.575129 5.000000 12.575171 2
 7.575128 4.799998 12.375172 2
 7.575124 4.599996 12.175164 2
 7.575115 4.399996 11.975148 2
 7.575098 4.200018 11.775146 2
 7.575058 4.000112 11.575198 2
 7.574933 3.800347 11.375308 2
 7.574574 3.600779 11.175374 2
 7.573779 3.401391 10.975188 2
 7.572503 3.202252 10.774768 2
 7.570318 3.003832 10.574165 2
 7.564512 2.806926 10.371442 2
 7.534124 2.593119 10.127247 2
 7.578265 2.404672 9.982933 2
 7.406755 2.419639 9.826392 2
 7.207006 2.423249 9.630259 2
 7.004527 2.424298 9.428829 2
 6.802338 2.424028 9.226371 2
 6.601114 2.424141 9.025256 2
 6.400464 2.424439 8.824906 2
 6.200158 2.424684 8.624845 2
 7.400393 6.499015 13.899442 2
 7.401360 6.299318 13.700715 2
 7.401683 6.099736 13.501456 2
 7.401784 5.899960 13.301783 2
 7.401840 5.700023 13.101903 2
 7.401884 5.500021 12.901943 2
 7.401910 5.300008 12.701956 2
 7.401920 5.100001 12.501959 2
 7.401920 4.899995 12.301953 2
 7.401912 4.699984 12.101926 2
 7.401892 4.499966 11.901890 2
 7.401860 4.299963 11.701858 2
 7.401821 4.100049 11.501900 2
 7.401742 3.900363 11.302133 2
 7.401453 3.701064 11.102542 2
 7.400558 3.502144 10.902722 2
 7.398678 3.303178 10.701871 2
 7.397244 3.104354 10.501601 2
 7.396869 2.907930 10.304807 2
 7.405969 2.738339 10.144313 2
 7.313740 2.593949 9.907689 2
 7.108208 2.599282 9.707499 2
 6.903466 2.596437 9.499909 2
 6.701893 2.596218 9.298116 2
 6.500976 2.596862 9.097841 2
 6.300426 2.597482 8.897916 2
 6.000041 2.424814 8.424870 2
 6.100166 2.597859 8.698030 2
 5.900070 2.598031 8.498110 2
 7.227750 6.397942 13.625729 2
 7.228303 6.199261 13.427607 2
 7.228359 5.999932 13.228331 2
 7.228419 5.800118 13.028575 2
 7.228533 5.600099 12.828671 2
 7.228634 5.400047 12.628722 2
 7.228690 5.200013 12.428738 2
 7.228707 4.999991 12.228737 2
 7.228694 4.799959 12.028687 2
 7.228652 4.599897 11.828579 2
 7.228584 4.399815 11.628430 2
 7.228517 4.199793 11.428340 2
 7.228503 4.000044 11.228573 2
 7.228488 3.800911 11.029422 2
 7.228018 3.602712 10.830749 2
 7.225955 3.405191 10.631161 2
 7.220392 3.205528 10.425932 2
 7.222239 3.005103 10.227351 2
 7.217866 2.790201 10.008073 2
 7.001481 2.767710 9.769199 2
 6.802310 2.766870 9.569186 2
 6.601788 2.768381 9.370179 2
 6.401031 2.769757 9.170792 2
 6.200559 2.770633 8.971201 2
 6.000339 2.771116 8.771466 2
 5.800220 2.771300 8.571533 2
 7.054683 5.900492 12.955207 2
 7.054866 5.700380 12.755281 2
 7.055157 5.500192 12.555380 2
 7.055366 5.300069 12.355469 2
 7.055458 5.099999 12.155492 2
 7.055461 4.899924 11.955413 2
 7.055388 4.699782 11.755198 2
 7.055244 4.499543 11.554811 2
 7.055079 4.299260 11.354365 2
 7.055042 4.099163 11.154227 2
 7.055341 3.899759 10.955115 2
 7.055895 3.701829 10.757738 2
 7.055636 3.506113 10.561766 2
 7.051824 3.313012 10.364847 2
 7.025085 3.104084 10.129179 2
 7.073992 2.920014 9.994015 2
 6.902282 2.933767 9.836060 2
 6.703349 2.938375 9.641726 2
 6.502329 2.941333 9.443668 2
 6.301538 2.942856 9.244406 2
 6.101200 2.943983 9.045189 2
 5.900901 2.944539 8.845451 2
 6.880466 5.801201 12.681695 2
 6.881126 5.600614 12.481773 2
 6.881736 5.400246 12.282010 2
 6.882077 5.200054 12.082165 2
 6.882175 4.999899 11.882103 2
 6.882082 4.799642 11.681752 2
 6.881815 4.599163 11.481004 2
 6.881443 4.398440 11.279906 2
 6.881188 4.197661 11.078875 2
 6.881483 3.997330 10.878830 2
 6.883006 3.798505 10.681532 2
 6.885648 3.602848 10.488511 2
 6.887191 3.411706 10.298907 2
 6.896906 3.246528 10.143447 2
 6.807559 3.105780 9.913349 2
 6.605196 3.113425 9.718623 2
 6.403300 3.113977 9.517283 2
 6.203310 3.116281 9.319602 2
 6.002806 3.117798 9.120612 2
 5.802030 3.118254 8.920300 2
 6.705859 5.701594 12.407483 2
 6.707357 5.500651 12.208035 2
 6.708319 5.300206 12.008553 2
 6.708727 5.099927 11.808675 2
 6.708698 4.899539 11.608256 2
 6.708280 4.698785 11.407084 2
 6.707546 4.497481 11.205048 2
 6.706819 4.295703 11.002542 2
 6.706699 4.093930 10.800645 2
 6.707966 3.892879 10.600865 2
 6.713069 3.694792 10.407875 2
 6.721134 3.503249 10.224400 2
 6.714007 3.298263 10.012283 2
 6.503598 3.281546 9.785152 2
 6.307525 3.286827 9.594363 2
 6.107226 3.291108 9.398349 2
 5.905461 3.292304 9.197769 2
 6.531502 5.601285 12.132810 2
 6.533750 5.400454 11.934229 2
 6.534873 5.200035 11.734931 2
 6.535142 4.999551 11.534712 2
 6.534647 4.798604 11.333262 2
 6.533405 4.596767 11.130186 2
 6.531759 4.393763 10.925538 2
 6.530834 4.190064 10.720921 2
 6.531560 3.986812 10.518385 2
 6.533312 3.782964 10.316291 2
 6.550257 3.585893 10.136156 2
 6.580191 3.424278 10.004483 2
 6.415909 3.450574 9.866488 2
 6.216805 3.465732 9.682548 2
 6.012115 3.466950 9.479073 2
 5.808833 3.467701 9.276544 2
 6.357897 5.500551 11.858469 2
 6.360236 5.300147 11.660401 2
 6.361205 5.099681 11.460902 2
 6.360919 4.898767 11.259701 2
 6.359250 4.696793 11.056057 2
 6.356237 4.492949 10.849198 2
 6.352998 4.286659 10.639669 2
 6.353514 4.080087 10.433613 2
 6.357468 3.877417 10.234901 2
 6.342303 3.656801 9.999117 2
 6.120941 3.640646 9.761604 2
 5.918134 3.644237 9.562386 2
 6.353383 5.701550 12.054955 2
 5.711941 3.644645 9.356599 2
 6.180956 5.599769 11.780743 2
 6.184464 5.400049 11.584529 2
 6.186517 5.199762 11.386295 2
 6.187013 4.999155 11.186179 2
 6.185367 4.797679 10.983058 2
 6.181274 4.594276 10.775561 2
 6.174655 4.387145 10.561809 2
 6.167640 4.173211 10.340863 2
 6.179339 3.963414 10.142770 2
 6.206383 3.791509 9.997906 2
 6.034045 3.817878 9.851933 2
 5.824357 3.828679 9.653048 2
 5.611322 3.820980 9.432312 2
 6.007524 5.499849 11.507388 2
 6.010387 5.299516 11.309916 2
 6.012669 5.099244 11.111923 2
 6.011981 4.898929 10.910925 2
 6.007491 4.697156 10.704655 2
 5.999539 4.492769 10.492316 2
 5.985254 4.281757 10.267023 2
 5.956914 4.038933 9.995854 2
 5.714865 4.007560 9.722435 2
 5.506200 3.991862 9.498066 2
 5.830495 5.399161 11.229665 2
 5.837409 5.197886 11.035303 2
 5.839147 4.999345 10.838500 2
 5.835851 4.800506 10.636363 2
 5.825511 4.598698 10.424218 2
 5.817083 4.397943 10.215032 2
 5.790763 4.201298 9.992068 2
 5.598191 4.166802 9.764998 2
 5.403332 4.158935 9.562274 2
 5.659755 4.707521 10.367278 2
 5.627558 4.497765 10.125330 2
 5.668088 4.317640 9.985736 2
 5.502778 4.327365 9.830151 2
 1 2 3 
 3 4 5 
 5 6 7 
 7 8 9 
 9 10 11 
 11 12 13 
 13 14 15 
 15 16 17 
 17 18 19 
 19 20 21 
 21 22 23 
 23 24 25 
 25 26 27 
 27 28 29 
 29 30 31 
 31 32 33 
 33 34 35 
 35 36 37 
 37 38 39 
 39 40 41 
 41 42 43 
 43 44 45 
 45 46 47 
 47 48 49 
 49 50 51 
 51 52 53 
 53 54 55 
 55 56 57 
 57 58 59 
 59 60 61 
 61 62 63 
 63 64 65 
 65 66 67 
 67 68 69 
 70 71 69 
 72 71 70 
 73 72 74 
 75 73 76 
 77 75 78 
 79 77 80 
 81 79 82 
 83 81 84 
 85 83 86 
 87 85 88 
 89 87 90 
 91 89 92 
 93 91 94 
 95 93 96 
 97 95 98 
 99 97 100 
 101 99 102 
 103 101 104 
 105 103 106 
 107 2 1 
 2 4 3 
 4 6 5 
 6 8 7 
 8 10 9 
 10 12 11 
 12 14 13 
 14 16 15 
 16 18 17 
 18 20 19 
 20 22 21 
 23 22 24 
 25 24 26 
 27 26 28 
 29 28 30 
 31 30 32 
 33 32 34 
 35 34 36 
 37 36 38 
 39 38 40 
 41 40 42 
 43 42 44 
 45 44 46 
 47 46 48 
 49 48 50 
 51 50 52 
 53 52 54 
 55 54 56 
 57 56 58 
 59 58 60 
 61 60 62 
 63 62 64 
 65 64 66 
 67 66 68 
 68 108 69 
 108 70 69 
 108 72 70 
 74 72 108 
 73 74 76 
 75 76 78 
 77 78 80 
 79 80 82 
 81 82 84 
 83 84 86 
 85 86 88 
 87 88 90 
 89 90 92 
 91 92 94 
 93 94 96 
 95 96 98 
 97 98 100 
 99 100 102 
 101 102 104 
 103 104 106 
 107 109 2 
 2 110 4 
 4 111 6 
 6 112 8 
 8 113 10 
 10 114 12 
 12 115 14 
 14 116 16 
 16 117 18 
 18 118 20 
 20 119 22 
 120 24 22 
 121 26 24 
 122 28 26 
 123 30 28 
 124 32 30 
 125 34 32 
 126 36 34 
 127 38 36 
 128 40 38 
 129 42 40 
 130 44 42 
 131 46 44 
 132 48 46 
 133 50 48 
 134 52 50 
 135 54 52 
 136 56 54 
 137 58 56 
 138 60 58 
 139 62 60 
 140 64 62 
 141 66 64 
 142 68 66 
 74 108 68 
 74 142 76 
 78 76 143 
 80 78 144 
 82 80 145 
 84 82 146 
 86 84 147 
 86 148 88 
 90 88 149 
 92 90 150 
 94 92 151 
 96 94 152 
 98 96 153 
 100 98 154 
 102 100 155 
 104 102 156 
 106 104 157 
 158 109 107 
 109 110 2 
 110 111 4 
 111 112 6 
 112 113 8 
 113 114 10 
 114 115 12 
 115 116 14 
 116 117 16 
 117 118 18 
 118 119 20 
 119 120 22 
 120 121 24 
 121 122 26 
 122 123 28 
 123 124 30 
 124 125 32 
 125 126 34 
 126 127 36 
 127 128 38 
 128 129 40 
 129 130 42 
 130 131 44 
 131 132 46 
 132 133 48 
 133 134 50 
 134 135 52 
 135 136 54 
 136 137 56 
 137 138 58 
 138 139 60 
 139 140 62 
 140 141 64 
 141 142 66 
 74 68 142 
 142 143 76 
 78 143 144 
 80 144 145 
 82 145 146 
 84 146 147 
 86 147 148 
 148 149 88 
 90 149 150 
 92 150 151 
 94 151 152 
 96 152 153 
 98 153 154 
 100 154 155 
 102 155 156 
 104 156 157 
 158 159 109 
 109 160 110 
 110 161 111 
 111 162 112 
 112 163 113 
 113 164 114 
 114 165 115 
 115 166 116 
 116 167 117 
 117 168 118 
 118 169 119 
 119 170 120 
 120 171 121 
 172 122 121 
 122 173 123 
 174 124 123 
 175 125 124 
 176 126 125 
 126 177 127 
 178 128 127 
 179 129 128 
 180 130 129 
 181 131 130 
 182 132 131 
 183 133 132 
 134 133 184 
 185 135 134 
 186 136 135 
 187 137 136 
 188 138 137 
 189 139 138 
 190 140 139 
 191 141 140 
 142 141 192 
 142 192 143 
 144 143 193 
 145 144 194 
 146 145 195 
 147 146 196 
 148 147 197 
 149 148 198 
 150 149 199 
 150 200 151 
 152 151 201 
 153 152 202 
 154 153 203 
 155 154 204 
 156 155 205 
 157 156 206 
 159 160 109 
 160 161 110 
 161 162 111 
 162 163 112 
 163 164 113 
 164 165 114 
 165 166 115 
 166 167 116 
 167 168 117 
 168 169 118 
 169 170 119 
 170 171 120 
 171 172 121 
 122 172 173 
 173 174 123 
 174 175 124 
 175 176 125 
 126 176 177 
 177 178 127 
 178 179 128 
 179 180 129 
 180 181 130 
 181 182 131 
 182 183 132 
 184 133 183 
 184 185 134 
 185 186 135 
 186 187 136 
 187 188 137 
 188 189 138 
 189 190 139 
 190 191 140 
 191 192 141 
 193 143 192 
 144 193 194 
 145 194 195 
 146 195 196 
 147 196 197 
 148 197 198 
 149 198 199 
 150 199 200 
 200 201 151 
 152 201 202 
 153 202 203 
 154 203 204 
 155 204 205 
 156 205 206 
 207 160 159 
 160 208 161 
 161 209 162 
 162 210 163 
 163 211 164 
 164 212 165 
 213 166 165 
 166 214 167 
 167 215 168 
 168 216 169 
 169 217 170 
 170 218 171 
 219 172 171 
 220 173 172 
 173 221 174 
 222 175 174 
 223 176 175 
 224 177 176 
 177 225 178 
 226 179 178 
 227 180 179 
 228 181 180 
 182 181 229 
 230 183 182 
 231 184 183 
 232 185 184 
 233 186 185 
 234 187 186 
 235 188 187 
 236 189 188 
 237 190 189 
 238 191 190 
 193 192 191 
 194 193 239 
 195 194 240 
 195 241 196 
 197 196 242 
 198 197 243 
 199 198 244 
 199 245 200 
 201 200 246 
 202 201 247 
 202 248 203 
 204 203 249 
 204 250 205 
 206 205 251 
 252 207 159 
 208 160 207 
 208 209 161 
 209 210 162 
 210 211 163 
 211 212 164 
 212 213 165 
 214 166 213 
 214 215 167 
 215 216 168 
 216 217 169 
 217 218 170 
 218 219 171 
 219 220 172 
 173 220 221 
 221 222 174 
 222 223 175 
 223 224 176 
 177 224 225 
 225 226 178 
 226 227 179 
 227 228 180 
 229 181 228 
 229 230 182 
 230 231 183 
 231 232 184 
 232 233 185 
 233 234 186 
 234 235 187 
 235 236 188 
 236 237 189 
 237 238 190 
 238 193 191 
 239 193 238 
 194 239 240 
 195 240 241 
 241 242 196 
 197 242 243 
 198 243 244 
 199 244 245 
 245 246 200 
 201 246 247 
 202 247 248 
 248 249 203 
 204 249 250 
 250 251 205 
 252 253 207 
 254 208 207 
 255 209 208 
 209 256 210 
 257 211 210 
 211 258 212 
 212 259 213 
 213 260 214 
 214 261 215 
 215 262 216 
 216 263 217 
 264 218 217 
 265 219 218 
 266 220 219 
 267 221 220 