TITLE      =  "2D FE Unstructured grid data" 
VARIABLES = "X", "Y", "U", "Dom" 
ZONE T="P1", F=FEPOINT, N= 778 E= 1436  ET=TRIANGLE 
 4.400000 10.000000 14.400000 3
 4.500000 9.826795 14.326806 3
 4.600000 10.000000 14.600000 3
 4.700000 9.826795 14.526799 3
 4.800000 10.000000 14.800000 3
 4.900000 9.826795 14.726810 3
 5.000000 10.000000 15.000000 3
 5.200000 10.000000 15.200000 3
 5.100000 9.826795 14.926802 3
 5.300000 9.826795 15.126802 3
 5.400000 10.000000 15.400000 3
 5.500000 9.826795 15.326809 3
 5.600000 10.000000 15.600000 3
 5.700000 9.826795 15.526808 3
 5.800000 10.000000 15.800000 3
 5.900000 9.826795 15.726807 3
 6.000000 10.000000 16.000000 3
 6.100000 9.826795 15.926807 3
 6.200000 10.000000 16.200001 3
 6.300000 9.826795 16.126797 3
 6.400000 10.000000 16.400000 3
 6.500000 9.826795 16.326805 3
 6.600000 10.000000 16.600000 3
 6.700000 9.826795 16.526798 3
 6.800000 10.000000 16.799999 3
 6.900000 9.826795 16.726805 3
 7.000000 10.000000 17.000000 3
 7.100000 9.826795 16.926804 3
 7.200000 10.000000 17.200001 3
 7.300000 9.826795 17.126789 3
 7.400000 10.000000 17.400000 3
 7.500000 9.826796 17.326794 3
 7.600000 10.000000 17.600000 3
 7.700002 9.826799 17.526800 3
 7.800000 10.000000 17.799999 3
 7.900011 9.826811 17.726818 3
 8.000000 10.000000 18.000000 3
 8.100041 9.826840 17.926880 3
 8.200000 10.000000 18.200001 3
 8.300128 9.826893 18.127024 3
 8.400000 10.000000 18.400000 3
 8.500334 9.826964 18.327299 3
 8.600000 10.000000 18.600000 3
 8.700749 9.827041 18.527802 3
 8.800000 10.000000 18.799999 3
 8.901427 9.827153 18.728575 3
 9.000000 10.000000 19.000000 3
 9.102324 9.827316 18.929642 3
 9.200000 10.000000 19.200001 3
 9.303625 9.827213 19.130836 3
 9.400000 10.000000 19.400000 3
 9.507698 9.826240 19.333939 3
 9.600000 10.000000 19.600000 3
 9.707205 9.840112 19.547316 3
 9.800000 10.000000 19.799999 3
 9.868964 9.869840 19.738802 3
 10.000000 10.000000 20.000000 3
 10.000000 9.800000 19.799999 3
 9.837681 9.709203 19.546873 3
 10.000000 9.600000 19.600000 3
 9.820952 9.509867 19.330830 3
 10.000000 9.400000 19.400000 3
 9.820171 9.304181 19.124350 3
 10.000000 9.200000 19.200001 3
 9.821795 9.101304 18.923107 3
 10.000000 9.000000 19.000000 3
 9.824164 8.900148 18.724321 3
 10.000000 8.800000 18.799999 3
 9.825560 8.699957 18.525517 3
 10.000000 8.600000 18.600000 3
 9.826258 8.499968 18.326229 3
 10.000000 8.400000 18.400000 3
 9.826588 8.299988 18.126574 3
 10.000000 8.200000 18.200001 3
 9.826729 8.099998 17.926729 3
 10.000000 8.000000 18.000000 3
 9.826778 7.900001 17.726784 3
 10.000000 7.800000 17.799999 3
 9.826792 7.700001 17.526798 3
 10.000000 7.600000 17.600000 3
 9.826795 7.500000 17.326803 3
 10.000000 7.400000 17.400000 3
 9.826795 7.300000 17.126789 3
 10.000000 7.200000 17.200001 3
 9.826795 7.100000 16.926800 3
 10.000000 7.000000 17.000000 3
 4.300000 9.826795 14.126807 3
 4.400000 9.653590 14.053607 3
 4.600000 9.653590 14.253612 3
 4.800000 9.653590 14.453614 3
 5.000000 9.653590 14.653613 3
 5.200000 9.653590 14.853613 3
 5.400000 9.653590 15.053607 3
 5.600000 9.653590 15.253613 3
 5.800000 9.653590 15.453617 3
 6.000000 9.653590 15.653612 3
 6.200000 9.653590 15.853616 3
 6.400000 9.653590 16.053612 3
 6.600000 9.653590 16.253597 3
 6.800000 9.653590 16.453602 3
 7.000000 9.653590 16.653599 3
 7.200000 9.653590 16.853601 3
 7.400001 9.653591 17.053600 3
 7.600004 9.653597 17.253607 3
 7.800018 9.653618 17.453650 3
 8.000062 9.653674 17.653727 3
 8.200181 9.653785 17.853973 3
 8.400465 9.653945 18.054420 3
 8.601070 9.654096 18.255177 3
 8.802207 9.654192 18.456396 3
 9.003881 9.654489 18.658373 3
 9.205553 9.655162 18.860712 3
 9.406587 9.654738 19.061327 3
 9.629012 9.635622 19.264633 3
 9.638646 9.410381 19.049025 3
 9.639001 9.203550 18.842552 3
 9.646443 8.999763 18.646204 3
 9.650084 8.799567 18.449663 3
 9.651889 8.599755 18.251654 3
 9.652842 8.399879 18.052732 3
 9.653315 8.199951 17.853270 3
 9.653508 7.999991 17.653502 3
 9.653569 7.800005 17.453579 3
 9.653584 7.600005 17.253599 3
 9.653588 7.400002 17.053593 3
 9.653589 7.200001 16.853596 3
 4.200000 9.653590 13.853612 3
 4.300000 9.480385 13.780410 3
 4.500000 9.480385 13.980411 3
 4.700000 9.480385 14.180413 3
 4.900000 9.480385 14.380404 3
 5.100000 9.480385 14.580417 3
 5.300000 9.480385 14.780416 3
 5.500000 9.480385 14.980416 3
 5.700000 9.480385 15.180414 3
 5.900000 9.480385 15.380413 3
 6.100000 9.480385 15.580410 3
 6.300000 9.480385 15.780406 3
 6.500000 9.480385 15.980410 3
 6.700000 9.480385 16.180403 3
 6.900000 9.480385 16.380398 3
 7.100000 9.480385 16.580406 3
 7.300002 9.480387 16.780403 3
 7.500010 9.480394 16.980413 3
 7.700032 9.480425 17.180473 3
 7.900091 9.480510 17.380600 3
 8.100234 9.480691 17.580936 3
 8.300544 9.480989 17.781538 3
 8.501161 9.481326 17.982502 3
 8.702361 9.481443 18.183802 3
 8.904716 9.481133 18.385851 3
 9.107935 9.482063 18.590004 3
 9.309589 9.485273 18.794870 3
 9.484353 9.499175 18.983534 3
 9.437746 9.309972 18.747723 3
 9.467803 9.095390 18.563194 3
 9.473907 8.897997 18.371906 3
 9.476659 8.699073 18.175739 3
 9.478454 8.499472 17.977945 3
 9.479591 8.299726 17.779324 3
 9.480122 8.099918 17.580050 3
 9.480307 7.900009 17.380322 3
 9.480357 7.700027 17.180401 3
 9.480372 7.500017 16.980396 3
 9.480380 7.300006 16.780399 3
 4.100000 9.480385 13.580410 3
 9.480384 7.100001 16.580387 3
 4.200000 9.307179 13.507208 3
 4.400000 9.307179 13.707215 3
 4.600000 9.307179 13.907213 3
 4.800000 9.307179 14.107217 3
 5.000000 9.307179 14.307218 3
 5.200000 9.307179 14.507214 3
 5.400000 9.307179 14.707217 3
 5.600000 9.307179 14.907216 3
 5.800000 9.307179 15.107211 3
 6.000000 9.307179 15.307213 3
 6.200000 9.307179 15.507207 3
 6.400000 9.307179 15.707206 3
 6.600000 9.307179 15.907199 3
 6.800000 9.307179 16.107208 3
 7.000001 9.307179 16.307211 3
 7.200006 9.307181 16.507204 3
 7.400021 9.307189 16.707222 3
 7.600062 9.307224 16.907295 3
 7.800154 9.307332 17.107494 3
 8.000341 9.307586 17.307940 3
 8.200694 9.308045 17.508757 3
 8.401299 9.308702 17.710022 3
 8.602229 9.309296 17.911531 3
 8.803866 9.308906 18.112783 3
 9.008959 9.305711 18.314682 3
 9.215408 9.310452 18.525866 3
 9.308238 9.165133 18.473373 3
 9.299490 8.995043 18.294535 3
 9.300645 8.797984 18.098654 3
 9.302873 8.598524 17.901413 3
 9.305339 8.398994 17.704348 3
 9.306558 8.199627 17.506193 3
 9.306973 8.000001 17.306988 3
 9.307079 7.800108 17.107204 3
 9.307117 7.600085 16.907219 3
 9.307146 7.400040 16.707203 3
 9.307167 7.200013 16.507191 3
 4.300000 9.133975 13.434010 3
 4.500000 9.133975 13.634017 3
 4.700000 9.133975 13.834017 3
 4.900000 9.133975 14.034016 3
 5.100000 9.133975 14.234012 3
 5.300000 9.133975 14.434021 3
 5.500000 9.133975 14.634018 3
 5.700000 9.133975 14.834013 3
 5.900000 9.133975 15.034011 3
 6.100000 9.133975 15.234008 3
 6.300000 9.133975 15.434008 3
 6.500000 9.133975 15.634007 3
 6.700000 9.133975 15.833999 3
 6.900002 9.133974 16.033998 3
 7.100012 9.133974 16.234005 3
 7.300042 9.133979 16.434038 3
 7.500120 9.134007 16.634148 3
 7.700280 9.134119 16.834414 3
 7.900562 9.134421 17.034986 3
 8.101011 9.135026 17.236059 3
 8.301710 9.135969 17.437698 3
 8.502620 9.137278 17.639914 3
 8.703229 9.138531 17.841778 3
 8.902556 9.137239 18.039804 3
 9.119493 9.113961 18.233458 3
 9.124815 8.898394 18.023232 3
 9.123980 8.697309 17.821318 3
 9.130386 8.496932 17.627335 3
 9.132958 8.298738 17.431709 3
 9.133646 8.099950 17.233612 3
 9.133716 7.900363 17.034092 3
 9.133734 7.700330 16.834076 3
 9.133811 7.500182 16.634007 3
 9.133895 7.300073 16.433981 3
 9.133947 7.100021 16.233980 3
 4.400000 8.960770 13.360809 3
 4.600000 8.960770 13.560807 3
 4.800000 8.960770 13.760812 3
 5.000000 8.960770 13.960808 3
 5.200000 8.960770 14.160815 3
 5.400000 8.960770 14.360809 3
 5.600000 8.960770 14.560809 3
 5.800000 8.960770 14.760812 3
 6.000000 8.960770 14.960808 3
 6.200000 8.960770 15.160808 3
 6.400000 8.960770 15.360799 3
 6.600000 8.960770 15.560793 3
 6.800004 8.960769 15.760795 3
 7.000021 8.960766 15.960812 3
 7.200076 8.960763 16.160862 3
 7.400211 8.960773 16.361000 3
 7.600489 8.960849 16.561350 3
 7.800964 8.961123 16.762100 3
 8.001632 8.961826 16.963465 3
 8.202454 8.963049 17.165525 3
 8.403683 8.964512 17.368217 3
 8.604980 8.967175 17.572180 3
 8.804062 8.971238 17.775322 3
 8.975871 8.984391 17.960274 3
 8.927944 8.800052 17.728022 3
 8.955792 8.590317 17.546129 3
 8.960268 8.396417 17.356693 3
 8.960816 8.199830 17.160664 3
 8.960321 8.001071 16.961414 3
 8.960053 7.801050 16.761118 3
 8.960171 7.600637 16.560822 3
 8.960424 7.400289 16.360722 3
 8.960624 7.200102 16.160738 3
 4.200000 8.960770 13.160805 3
 8.960724 7.000029 15.960770 3
 4.300000 8.787564 13.087600 3
 4.500000 8.787564 13.287611 3
 4.700000 8.787564 13.487609 3
 4.900000 8.787564 13.687611 3
 5.100000 8.787564 13.887606 3
 5.300000 8.787564 14.087611 3
 5.500000 8.787564 14.287608 3
 5.700000 8.787564 14.487611 3
 5.900000 8.787564 14.687600 3
 6.100000 8.787564 14.887600 3
 6.300000 8.787564 15.087599 3
 6.500001 8.787563 15.287593 3
 6.700006 8.787560 15.487594 3
 6.900033 8.787551 15.687600 3
 7.100119 8.787532 15.887671 3
 7.300333 8.787510 16.087856 3
 7.500772 8.787518 16.288305 3
 7.701538 8.787665 16.489210 3
 7.902682 8.788234 16.690928 3
 8.103920 8.789767 16.893703 3
 8.304799 8.791993 17.096813 3
 8.507434 8.792245 17.299700 3
 8.710189 8.799296 17.509514 3
 8.800416 8.657840 17.458275 3
 8.791305 8.492050 17.283379 3
 8.790014 8.299849 17.089886 3
 8.787310 8.102899 16.890223 3
 8.785805 7.902880 16.688698 3
 8.785787 7.701822 16.487627 3
 8.786403 7.500889 16.287308 3
 8.787004 7.300355 16.087385 3
 8.787356 7.100121 15.887497 3
 4.100000 8.787564 12.887600 3
 3.700000 8.787564 12.487588 3
 3.800000 8.614359 12.414389 3
 3.900000 8.787564 12.687601 3
 4.000000 8.614359 12.614395 3
 4.200000 8.614359 12.814400 3
 4.400000 8.614359 13.014405 3
 4.600000 8.614359 13.214410 3
 4.800000 8.614359 13.414411 3
 5.000000 8.614359 13.614413 3
 5.200000 8.614359 13.814407 3
 5.400000 8.614359 14.014414 3
 5.600000 8.614359 14.214407 3
 5.800000 8.614359 14.414403 3
 6.000000 8.614359 14.614406 3
 6.200000 8.614359 14.814391 3
 6.400001 8.614357 15.014386 3
 6.600008 8.614349 15.214381 3
 6.800041 8.614325 15.414392 3
 7.000158 8.614272 15.614452 3
 7.200464 8.614189 15.814669 3
 7.401100 8.614105 16.015219 3
 7.602202 8.614091 16.216305 3
 7.803920 8.614282 16.418217 3
 8.006411 8.615168 16.621586 3
 8.208127 8.619066 16.827211 3
 8.405689 8.624035 17.029736 3
 8.617222 8.606673 17.223921 3
 8.624592 8.400598 17.025215 3
 8.616014 8.207366 16.823389 3
 8.610533 8.007153 16.617708 3
 8.609851 7.804448 16.414330 3
 8.611132 7.602213 16.213367 3
 8.612662 7.400936 16.013618 3
 8.613657 7.200366 15.814037 3
 3.599998 8.614357 12.214386 3
 8.614130 7.000137 15.614285 3
 3.699999 8.441151 12.141193 3
 3.900000 8.441154 12.341193 3
 4.100000 8.441154 12.541203 3
 4.300000 8.441154 12.741207 3
 4.500000 8.441154 12.941207 3
 4.700000 8.441154 13.141204 3
 4.900000 8.441154 13.341211 3
 5.100000 8.441154 13.541211 3
 5.300000 8.441154 13.741208 3
 5.500000 8.441154 13.941210 3
 5.700000 8.441154 14.141207 3
 5.900000 8.441154 14.341198 3
 6.100000 8.441154 14.541194 3
 6.300001 8.441152 14.741189 3
 6.500006 8.441138 14.941177 3
 6.700037 8.441092 15.141154 3
 6.900167 8.440974 15.341165 3
 7.100551 8.440766 15.541336 3
 7.301406 8.440505 15.741936 3
 7.502907 8.440312 15.943236 3
 7.705102 8.440290 16.145411 3
 7.908232 8.440257 16.348507 3
 8.114511 8.439873 16.554405 3
 8.316344 8.454264 16.770632 3
 8.482716 8.480515 16.963245 3
 8.451464 8.317411 16.768888 3
 8.432551 8.117146 16.549702 3
 8.430984 7.909530 16.340532 3
 8.433331 7.704561 16.137911 3
 8.436935 7.501875 15.938827 3
 8.439303 7.300807 15.740129 3
 8.440486 7.100379 15.540885 3
 3.499990 8.441135 11.941159 3
 3.600001 8.267923 11.867968 3
 3.800002 8.267944 12.067991 3
 4.000000 8.267949 12.267992 3
 4.200000 8.267949 12.468001 3
 4.400000 8.267949 12.668005 3
 4.600000 8.267949 12.868011 3
 4.800000 8.267949 13.068007 3
 5.000000 8.267949 13.268016 3
 5.200000 8.267949 13.468007 3
 5.400000 8.267949 13.668015 3
 5.600000 8.267949 13.868007 3
 5.800000 8.267949 14.068004 3
 6.000000 8.267950 14.267997 3
 6.200001 8.267948 14.467990 3
 6.400003 8.267935 14.667975 3
 6.600019 8.267870 14.867921 3
 6.800119 8.267676 15.067823 3
 7.000500 8.267258 15.267781 3
 7.201506 8.266623 15.468148 3
 7.403491 8.265994 15.669498 3
 7.606437 8.265835 15.872290 3
 7.809722 8.266250 16.075981 3
 8.012724 8.265565 16.278299 3
 8.238058 8.245457 16.483534 3
 8.248485 8.017168 16.265669 3
 8.250033 7.808044 16.058100 3
 8.259111 7.602485 15.861613 3
 8.264059 7.401207 15.665288 3
 8.266472 7.200780 15.467279 3
 3.700018 8.094711 11.794775 3
 3.900006 8.094737 11.994789 3
 4.100001 8.094743 12.194784 3
 4.300000 8.094744 12.394798 3
 4.500000 8.094744 12.594804 3
 4.700000 8.094744 12.794806 3
 4.900000 8.094744 12.994812 3
 5.100000 8.094744 13.194810 3
 5.300000 8.094744 13.394806 3
 5.500000 8.094744 13.594808 3
 5.700000 8.094745 13.794806 3
 5.900001 8.094746 13.994792 3
 6.100003 8.094748 14.194803 3
 6.300003 8.094746 14.394790 3
 6.499997 8.094692 14.594728 3
 6.700018 8.094465 14.794518 3
 6.900240 8.093843 14.994112 3
 7.101136 8.092621 15.193778 3
 7.303385 8.091028 15.394437 3
 7.507507 8.089787 15.597313 3
 7.712632 8.090658 15.803306 3
 7.916001 8.093883 16.009897 3
 8.092253 8.107602 16.199869 3
 8.047065 7.915984 15.963069 3
 8.079967 7.699140 15.779119 3
 8.088432 7.500603 15.589051 3
 8.092319 7.301176 15.393510 3
 8.093918 7.101106 15.195044 3
 3.800045 7.921496 11.721587 3
 4.000014 7.921528 11.921583 3
 4.200003 7.921536 12.121592 3
 4.400000 7.921538 12.321596 3
 4.600000 7.921539 12.521595 3
 4.800000 7.921539 12.721606 3
 5.000000 7.921539 12.921606 3
 5.200000 7.921539 13.121600 3
 5.400000 7.921539 13.321595 3
 5.600000 7.921539 13.521596 3
 5.800000 7.921542 13.721590 3
 6.000003 7.921551 13.921605 3
 6.200006 7.921570 14.121614 3
 6.399990 7.921570 14.321596 3
 6.599923 7.921422 14.521375 3
 6.799852 7.920802 14.720686 3
 7.000161 7.919147 14.919332 3
 7.201972 7.915965 15.117960 3
 7.406426 7.912672 15.319119 3
 7.615009 7.909873 15.524895 3
 7.823510 7.916173 15.739700 3
 7.919465 7.769210 15.688691 3
 7.914666 7.598018 15.512706 3
 7.919014 7.401294 15.320327 3
 7.920671 7.202161 15.122849 3
 7.921124 7.001723 14.922874 3
 3.900084 7.748278 11.648411 3
 4.100024 7.748317 11.848391 3
 4.300004 7.748328 12.048383 3
 4.500000 7.748332 12.248386 3
 4.700000 7.748333 12.448395 3
 4.900000 7.748334 12.648397 3
 5.100000 7.748334 12.848400 3
 5.300000 7.748334 13.048390 3
 5.500000 7.748334 13.248390 3
 5.699999 7.748337 13.448391 3
 5.900002 7.748352 13.648400 3
 6.100009 7.748398 13.848448 3
 6.300004 7.748482 14.048525 3
 6.499908 7.748530 14.248471 3
 6.699587 7.748238 14.447853 3
 6.899025 7.746879 14.645935 3
 7.098901 7.743095 14.842020 3
 7.302651 7.734631 15.037304 3
 7.509539 7.731553 15.241117 3
 7.732167 7.715353 15.447538 3
 7.748335 7.501046 15.249402 3
 7.748656 7.303959 15.052636 3
 7.747915 7.103678 14.851620 3
 7.747567 6.902187 14.649785 3
 7.921262 6.800952 14.722242 3
 7.747691 6.700889 14.448611 3
 4.000111 7.575061 11.575214 3
 4.200021 7.575100 11.775174 3
 4.399998 7.575116 11.975164 3
 4.599997 7.575124 12.175177 3
 4.799999 7.575128 12.375181 3
 5.000000 7.575129 12.575179 3
 5.200000 7.575129 12.775182 3
 5.400000 7.575129 12.975183 3
 5.599999 7.575131 13.175182 3
 5.800000 7.575148 13.375198 3
 6.000010 7.575214 13.575269 3
 6.200029 7.575380 13.775447 3
 6.399985 7.575666 13.975688 3
 6.599641 7.575929 14.175601 3
 6.798581 7.575597 14.374215 3
 6.996397 7.573352 14.569777 3
 7.192815 7.566543 14.759390 3
 7.406449 7.535078 14.941555 3
 7.595268 7.578503 15.173794 3
 7.579806 7.407219 14.987045 3
 7.575139 7.207515 14.782677 3
 7.573007 7.004591 14.577629 3
 7.573136 6.801752 14.374921 3
 3.800338 7.574939 11.375322 3
 7.573880 6.600250 14.174167 3
 3.900374 7.401756 11.302172 3
 4.100068 7.401834 11.501944 3
 4.299983 7.401870 11.701902 3
 4.499979 7.401898 11.901928 3
 4.699991 7.401915 12.101957 3
 4.899998 7.401922 12.301968 3
 5.100000 7.401924 12.501975 3
 5.300002 7.401923 12.701986 3
 5.500004 7.401923 12.901978 3
 5.700010 7.401937 13.101995 3
 5.900026 7.402008 13.302078 3
 6.100066 7.402225 13.502331 3
 6.300113 7.402696 13.702848 3
 6.499981 7.403486 13.903500 3
 6.699100 7.404406 14.103547 3
 6.896491 7.404594 14.301118 3
 7.091061 7.402380 14.493470 3
 7.260177 7.408800 14.669002 3
 7.404015 7.315458 14.719498 3
 7.395728 7.109600 14.505359 3
 7.396633 6.902971 14.299638 3
 7.398360 6.699879 14.098271 3
 3.701054 7.401469 11.102563 3
 7.400393 6.499015 13.899442 3
 3.502099 7.400577 10.902706 3
 3.602723 7.228052 10.830808 3
 3.800975 7.228528 11.029532 3
 4.000141 7.228550 11.228733 3
 4.199892 7.228564 11.428493 3
 4.399891 7.228621 11.628553 3
 4.599943 7.228674 11.828664 3
 4.799980 7.228704 12.028728 3
 4.999997 7.228715 12.228759 3
 5.200007 7.228717 12.428773 3
 5.400022 7.228714 12.628784 3
 5.600050 7.228718 12.828815 3
 5.800099 7.228773 13.028919 3
 6.000179 7.228998 13.229217 3
 6.200305 7.229566 13.429911 3
 6.400444 7.230638 13.631117 3
 6.600226 7.232457 13.832725 3
 6.798473 7.234999 14.033509 3
 6.993329 7.236845 14.230206 3
 7.204820 7.223364 14.428214 3
 7.218233 7.003456 14.221717 3
 7.218993 6.798610 14.017636 3
 7.225412 6.596582 13.822028 3
 3.405137 7.225986 10.631149 3
 7.227750 6.397942 13.625729 3
 3.506199 7.055682 10.561903 3
 3.702053 7.055967 10.758050 3
 3.900093 7.055463 10.955581 3
 4.099527 7.055203 11.154762 3
 4.299567 7.055236 11.354840 3
 4.499747 7.055355 11.555142 3
 4.699891 7.055447 11.755374 3
 4.899968 7.055492 11.955500 3
 5.100009 7.055508 12.155560 3
 5.300053 7.055508 12.355610 3
 5.500133 7.055498 12.555676 3
 5.700271 7.055514 12.755830 3
 5.900481 7.055684 12.956203 3
 6.100739 7.056276 13.157055 3
 6.301001 7.057511 13.358551 3
 6.501451 7.059349 13.560835 3
 6.701508 7.063075 13.764617 3
 6.898578 7.069412 13.968023 3
 7.067957 7.086519 14.154507 3
 7.022577 6.899694 13.922305 3
 7.050794 6.688996 13.739826 3
 7.055077 6.494744 13.549851 3
 7.228303 6.199261 13.427607 3
 7.055428 6.298376 13.353833 3
 7.054894 6.100076 13.155003 3
 7.228359 5.999932 13.228331 3
 7.054683 5.900492 12.955207 3
 3.603405 6.885714 10.489142 3
 3.799394 6.883211 10.682628 3
 3.998385 6.881881 10.880294 3
 4.198628 6.881684 11.080348 3
 4.399142 6.881866 11.281045 3
 4.599571 6.882074 11.481682 3
 4.799835 6.882210 11.682084 3
 4.999977 6.882277 11.882299 3
 5.200088 6.882298 12.082430 3
 5.400254 6.882287 12.282584 3
 5.600543 6.882260 12.482845 3
 5.801002 6.882306 12.683349 3
 6.001642 6.882720 12.884406 3
 6.202217 6.884153 13.086402 3
 6.402333 6.886526 13.288890 3
 6.604114 6.887469 13.491622 3
 6.805897 6.896061 13.701994 3
 6.895675 6.755200 13.650910 3
 6.886317 6.589180 13.475527 3
 6.884709 6.397314 13.282051 3
 6.881883 6.201017 13.082933 3
 6.880410 6.001700 12.882143 3
 6.880466 5.801201 12.681695 3
 3.696660 6.713190 10.409880 3
 3.895375 6.708621 10.604022 3
 4.096443 6.707893 10.804364 3
 4.297658 6.708089 11.005778 3
 4.498693 6.708449 11.207175 3
 4.699407 6.708754 11.408198 3
 4.899822 6.708954 11.608812 3
 5.100086 6.709057 11.809181 3
 5.300387 6.709079 12.009507 3
 5.500879 6.709036 12.209953 3
 5.701659 6.708968 12.410663 3
 5.902831 6.709016 12.611885 3
 6.104554 6.709742 12.814334 3
 6.305386 6.713605 13.019024 3
 6.502120 6.718897 13.221047 3
 6.712865 6.702562 13.415460 3
 6.719636 6.496871 13.216539 3
 6.710800 6.304371 13.015201 3
 6.705265 6.105090 12.810384 3
 6.704589 5.903231 12.607848 3
 3.504291 6.721057 10.225370 3
 6.705859 5.701594 12.407483 3
 3.588941 6.549791 10.138756 3
 3.787873 6.533646 10.321544 3
 3.992395 6.533657 10.526077 3
 4.194744 6.533955 10.728729 3
 4.396751 6.534371 10.931153 3
 4.598332 6.534884 11.133253 3
 4.799354 6.535357 11.334743 3
 4.999966 6.535686 11.535685 3
 5.200480 6.535843 11.736354 3
 5.401215 6.535832 11.937082 3
 5.602376 6.535713 12.138127 3
 5.804008 6.535583 12.339627 3
 6.006344 6.535356 12.541733 3
 6.211658 6.534869 12.746556 3
 6.412555 6.549319 12.961903 3
 6.578311 6.575870 13.154216 3
 6.546807 6.413328 12.960169 3
 6.527711 6.214071 12.741804 3
 6.525961 6.007545 12.533533 3
 6.528104 5.803442 12.331576 3
 6.531502 5.601285 12.132810 3
 3.664689 6.340184 10.004892 3
 3.888225 6.359203 10.247455 3
 4.090245 6.359823 10.450089 3
 4.293159 6.359688 10.652878 3
 4.496118 6.360181 10.856331 3
 4.698299 6.361084 11.059416 3
 4.899611 6.361925 11.261568 3
 5.100480 6.362470 11.462981 3
 5.301454 6.362638 11.664117 3
 5.503009 6.362456 11.865496 3
 5.705275 6.362261 12.067564 3
 5.907762 6.362350 12.270143 3
 6.109875 6.361391 12.471295 3
 6.334133 6.341391 12.675557 3
 6.344007 6.114423 12.458456 3
 6.344969 5.906408 12.251408 3
 6.353383 5.701550 12.054955 3
 3.984338 6.187819 10.172184 3
 4.187131 6.184612 10.371767 3
 4.392108 6.183928 10.576063 3
 4.596367 6.185392 10.781796 3
 4.798958 6.187218 10.986205 3
 5.000427 6.188671 11.189129 3
 5.201601 6.189420 11.391049 3
 5.403275 6.189375 11.592670 3
 5.606243 6.188517 11.794785 3
 5.810252 6.188671 11.998946 3
 6.012845 6.191037 12.203908 3
 6.188544 6.204307 12.392879 3
 6.142501 6.014085 12.156605 3
 6.173831 5.798148 11.972003 3
 6.180956 5.599769 11.780743 3
 4.076795 6.010706 10.087524 3
 4.284914 6.004316 10.289256 3
 4.493441 6.007114 10.500581 3
 4.698170 6.010512 10.708709 3
 4.900598 6.013912 10.914536 3
 5.101937 6.015899 11.117861 3
 5.303375 6.016687 11.320080 3
 5.505675 6.015846 11.521540 3
 5.711651 6.011814 11.723488 3
 5.919065 6.015594 11.934681 3
 6.013193 5.868949 11.882158 3
 6.005376 5.697934 11.703323 3
 6.007524 5.499849 11.507388 3
 4.155569 5.202445 9.358035 3
 3.982996 5.300550 9.283568 3
 3.983922 5.100821 9.084763 3
 4.153769 5.401451 9.555236 3
 3.983646 5.498712 9.482385 3
 3.987065 5.694353 9.681442 3
 4.153236 5.597424 9.750682 3
 3.981576 5.864599 9.846195 3
 4.168516 5.810633 9.979176 3
 4.390712 5.826420 10.217153 3
 4.597642 5.829285 10.426949 3
 4.801918 5.837666 10.639606 3
 5.002956 5.841684 10.844662 3
 5.204089 5.843764 11.047868 3
 5.405334 5.844797 11.250146 3
 5.605592 5.842818 11.448423 3
 5.823790 5.818390 11.642195 3
 5.830368 5.601433 11.431814 3
 4.158014 5.002370 9.160407 3
 5.830495 5.399161 11.229665 3
 4.329537 5.104638 9.434196 3
 4.326573 5.305268 9.631857 3
 4.321475 5.503583 9.825074 3
 4.305547 5.674067 9.979635 3
 4.494113 5.630286 10.124421 3
 4.707891 5.660985 10.368889 3
 4.905374 5.667368 10.572758 3
 5.105484 5.669804 10.775294 3
 5.307206 5.672304 10.979522 3
 5.507359 5.675951 11.183325 3
 5.680120 5.688616 11.368740 3
 5.632827 5.502974 11.135814 3
 5.661818 5.291677 10.953503 3
 5.837409 5.197886 11.035303 3
 5.666818 5.097191 10.764016 3
 5.839147 4.999345 10.838500 3
 5.666323 4.901888 10.568216 3
 5.835851 4.800506 10.636363 3
 4.332259 4.905314 9.237586 3
 5.659755 4.707521 10.367278 3
 5.304957 4.328632 9.633598 3
 5.403332 4.158935 9.562267 3
 5.502778 4.327365 9.830151 3
 4.502879 5.005909 9.508804 3
 4.503939 5.207926 9.711881 3
 4.496449 5.411569 9.908032 3
 4.640123 5.503543 10.143683 3
 4.809714 5.495664 10.305389 3
 5.006308 5.496612 10.502934 3
 5.208943 5.495486 10.704436 3
 5.413343 5.502380 10.915732 3
 5.504851 5.359362 10.864217 3
 5.496418 5.191912 10.688336 3
 5.497002 4.999701 10.496705 3
 5.495658 4.807553 10.303215 3
 5.502953 4.640473 10.143431 3
 5.627558 4.497765 10.125330 3
 5.410894 4.498173 9.909074 3
 4.503991 4.810073 9.314076 3
 5.206214 4.504466 9.710690 3
 4.673819 4.906794 9.580626 3
 4.676157 5.103004 9.779170 3
 4.693971 5.318064 10.012048 3
 4.906869 5.326146 10.233021 3
 5.103649 5.323884 10.427542 3
 5.319131 5.306384 10.625526 3
 5.327497 5.096061 10.423561 3
 5.327126 4.903711 10.230844 3
 5.317714 4.693514 10.011241 3
 4.682240 4.694730 9.376984 3
 5.100462 4.676728 9.777203 3
 4.822480 4.827415 9.649905 3
 4.857446 5.002383 9.859846 3
 4.827077 5.178535 10.005624 3
 5.002749 5.143690 10.146445 3
 5.179523 5.174121 10.353650 3
 5.145241 5.000305 10.145550 3
 5.178312 4.826221 10.004539 3
 4.899690 4.677087 9.576790 3
 5.000582 4.858382 9.858973 3
 5.001305 5.000966 10.002280 3
 1 2 3 
 3 4 5 
 5 6 7 
 8 7 9 
 10 11 8 
 12 13 11 
 14 15 13 
 16 17 15 
 18 19 17 
 20 21 19 
 22 23 21 
 24 25 23 
 26 27 25 
 28 29 27 
 30 31 29 
 32 33 31 
 34 35 33 
 36 37 35 
 38 39 37 
 40 41 39 
 42 43 41 
 44 45 43 
 46 47 45 
 48 49 47 
 50 51 49 
 52 53 51 
 54 55 53 
 55 56 57 
 56 58 57 
 59 60 58 
 60 61 62 
 62 63 64 
 64 65 66 
 66 67 68 
 68 69 70 
 70 71 72 
 72 73 74 
 74 75 76 
 76 77 78 
 78 79 80 
 80 81 82 
 82 83 84 
 84 85 86 
 87 2 1 
 2 4 3 
 4 6 5 
 6 9 7 
 9 10 8 
 10 12 11 
 12 14 13 
 14 16 15 
 16 18 17 
 18 20 19 
 20 22 21 
 22 24 23 
 24 26 25 
 26 28 27 
 28 30 29 
 30 32 31 
 32 34 33 
 34 36 35 
 36 38 37 
 38 40 39 
 40 42 41 
 42 44 43 
 44 46 45 
 46 48 47 
 48 50 49 
 50 52 51 
 52 54 53 
 55 54 56 
 56 59 58 
 61 60 59 
 61 63 62 
 63 65 64 
 65 67 66 
 67 69 68 
 69 71 70 
 71 73 72 
 73 75 74 
 75 77 76 
 77 79 78 
 79 81 80 
 81 83 82 
 83 85 84 
 87 88 2 
 2 89 4 
 4 90 6 
 6 91 9 
 10 9 92 
 12 10 93 
 14 12 94 
 16 14 95 
 18 16 96 
 20 18 97 
 22 20 98 
 24 22 99 
 26 24 100 
 28 26 101 
 30 28 102 
 32 30 103 
 34 32 104 
 36 34 105 
 38 36 106 
 40 38 107 
 42 40 108 
 44 42 109 
 46 44 110 
 48 46 111 
 50 48 112 
 52 50 113 
 52 114 54 
 59 56 54 
 61 59 114 
 61 115 63 
 63 116 65 
 65 117 67 
 67 118 69 
 69 119 71 
 120 73 71 
 73 121 75 
 75 122 77 
 77 123 79 
 79 124 81 
 81 125 83 
 83 126 85 
 127 88 87 
 88 89 2 
 89 90 4 
 90 91 6 
 91 92 9 
 93 10 92 
 94 12 93 
 95 14 94 
 96 16 95 
 97 18 96 
 98 20 97 
 99 22 98 
 100 24 99 
 101 26 100 
 102 28 101 
 103 30 102 
 104 32 103 
 105 34 104 
 106 36 105 
 107 38 106 
 108 40 107 
 109 42 108 
 110 44 109 
 111 46 110 
 112 48 111 
 113 50 112 
 52 113 114 
 114 59 54 
 61 114 115 
 115 116 63 
 116 117 65 
 117 118 67 
 118 119 69 
 119 120 71 
 121 73 120 
 121 122 75 
 122 123 77 
 123 124 79 
 124 125 81 
 125 126 83 
 127 128 88 
 88 129 89 
 89 130 90 
 90 131 91 
 92 91 132 
 93 92 133 
 94 93 134 
 135 95 94 
 96 95 136 
 97 96 137 
 98 97 138 
 99 98 139 
 100 99 140 
 101 100 141 
 102 101 142 
 103 102 143 
 104 103 144 
 105 104 145 
 105 146 106 
 107 106 147 
 108 107 148 
 109 108 149 
 110 109 150 
 111 110 151 
 152 112 111 
 113 112 153 
 154 114 113 
 115 114 154 
 115 155 116 
 116 156 117 
 117 157 118 
 118 158 119 
 119 159 120 
 120 160 121 
 121 161 122 
 162 123 122 
 123 163 124 
 124 164 125 
 125 165 126 
 166 128 127 
 128 129 88 
 129 130 89 
 130 131 90 
 131 132 91 
 92 132 133 
 134 93 133 
 134 135 94 
 136 95 135 
 137 96 136 
 138 97 137 
 139 98 138 
 140 99 139 
 141 100 140 
 142 101 141 
 143 102 142 
 144 103 143 
 145 104 144 
 105 145 146 
 147 106 146 
 148 107 147 
 149 108 148 
 150 109 149 
 151 110 150 
 151 152 111 
 153 112 152 
 154 113 153 
 115 154 155 
 155 156 116 
 156 157 117 
 157 158 118 
 158 159 119 
 159 160 120 
 160 161 121 
 161 162 122 
 163 123 162 
 163 164 124 
 164 165 125 
 165 167 126 
 168 128 166 
 128 169 129 
 129 170 130 
 130 171 131 
 131 172 132 
 133 132 173 
 134 133 174 
 175 135 134 
 136 135 176 
 137 136 177 
 138 137 178 
 139 138 179 
 140 139 180 
 141 140 181 
 142 141 182 
 143 142 183 
 144 143 184 
 145 144 185 
 146 145 186 
 147 146 187 
 148 147 188 
 149 148 189 
 150 149 190 
 151 150 191 
 152 151 192 
 193 153 152 
 155 154 153 
 155 194 156 
 156 195 157 
 196 158 157 
 158 197 159 
 159 198 160 
 160 199 161 
 200 162 161 
 162 201 163 
 163 202 164 
 203 165 164 
 165 204 167 
 169 128 168 
 169 170 129 
 170 171 130 
 171 172 131 
 172 173 132 
 133 173 174 
 174 175 134 
 176 135 175 
 177 136 176 
 178 137 177 
 179 138 178 
 180 139 179 
 181 140 180 
 182 141 181 
 183 142 182 
 184 143 183 
 185 144 184 
 186 145 185 
 187 146 186 
 188 147 187 
 189 148 188 
 190 149 189 
 191 150 190 
 192 151 191 
 192 193 152 
 155 153 193 
 194 195 156 
 155 193 194 
 195 196 157 
 197 158 196 
 197 198 159 
 198 199 160 
 199 200 161 
 201 162 200 
 201 202 163 
 202 203 164 
 204 165 203 
 168 205 169 
 169 206 170 
 170 207 171 
 171 208 172 
 209 173 172 
 210 174 173 
 211 175 174 
 212 176 175 
 177 176 213 
 178 177 214 
 179 178 215 
 180 179 216 
 180 217 181 
 182 181 218 
 183 182 219 
 184 183 220 
 185 184 221 
 186 185 222 
 187 186 223 
 188 187 224 
 189 188 225 
 189 226 190 
 190 227 191 
 192 191 228 
 193 192 229 
 229 195 194 
 193 229 194 
 195 230 196 
 231 197 196 
 232 198 197 
 198 233 199 
 199 234 200 
 200 235 201 
 201 236 202 
 237 203 202 
 203 238 204 
 205 206 169 
 206 207 170 
 207 208 171 
 208 209 172 
 210 173 209 
 211 174 210 
 211 212 175 
 213 176 212 
 214 177 213 
 215 178 214 
 216 179 215 
 180 216 217 
 218 181 217 
 219 182 218 
 220 183 219 
 221 184 220 
 222 185 221 
 223 186 222 
 224 187 223 
 225 188 224 
 189 225 226 
 190 226 227 
 228 191 227 
 229 192 228 
 230 195 229 
 230 231 196 
 232 197 231 
 233 198 232 
 233 234 199 
 234 235 200 
 235 236 201 
 236 237 202 
 238 203 237 
 238 239 204 
 240 206 205 
 241 207 206 
 207 242 208 
 243 209 208 
 209 244 210 
 210 245 211 
 212 211 246 
 213 212 247 
 213 248 214 
 214 249 215 
 216 215 250 
 217 216 251 
 218 217 252 
 219 218 253 
 220 219 254 
 255 221 220 
 256 222 221 
 223 222 257 
 224 223 258 
 224 259 225 
 225 260 226 
 226 261 227 
 228 227 262 
 229 228 263 
 229 263 230 
 230 264 231 
 265 232 231 
 233 232 266 
 267 234 233 
 234 268 235 
 235 269 236 
 236 270 237 
 238 237 271 
 238 272 239 
 273 240 205 
 241 206 240 
 242 207 241 
 242 243 208 
 244 209 243 
 244 245 210 
 245 246 211 
 247 212 246 
 213 247 248 
 214 248 249 
 250 215 249 
 251 216 250 
 252 217 251 
 253 218 252 
 254 219 253 
 254 255 220 
 255 256 221 
 257 222 256 
 258 223 257 
 224 258 259 
 225 259 260 